TITLE = "vncfd python"
VARIABLES = "X", "Y"
ZONE T="1", I= 157, J= 51
0,1,0
0,0.75,0
0,0.5,0
0,0.25,0
0,0,0
0,-0.25,0
0,-0.5,0
0,-0.75,0
0,-1,0
-0.225,-1.1625,0
-0.45,-1.325,0
-0.675,-1.4875,0
-0.9,-1.65,0
-1.125,-1.8125,0
-1.35,-1.975,0
-1.575,-2.1375,0
-1.8,-2.3,0
-2.025,-2.4625,0
-2.25,-2.625,0
-2.475,-2.7875,0
-2.7,-2.95,0
-2.925,-3.1125,0
-3.15,-3.275,0
-3.375,-3.4375,0
-3.6,-3.6,0
-3.825,-3.7625,0
-4.05,-3.925,0
-4.275,-4.0875,0
-4.5,-4.25,0
-4.725,-4.4125,0
-4.95,-4.575,0
-5.175,-4.7375,0
-5.4,-4.9,0
-5.625,-5.0625,0
-5.85,-5.225,0
-6.075,-5.3875,0
-6.3,-5.55,0
-6.525,-5.7125,0
-6.75,-5.875,0
-6.975,-6.0375,0
-7.2,-6.2,0
-7.425,-6.3625,0
-7.65,-6.525,0
-7.875,-6.6875,0
-8.1,-6.85,0
-8.325,-7.0125,0
-8.55,-7.175,0
-8.775,-7.3375,0
-9,-7.5,0
-9.25,-7.5,0
-9.5,-7.5,0
-9.75,-7.5,0
-10,-7.5,0
-10.25,-7.5,0
-10.5,-7.5,0
-10.75,-7.5,0
-11,-7.5,0
-11.112,-7.2258,0
-11.219,-6.95,0
-11.323,-6.6726,0
-11.422,-6.3936,0
-11.517,-6.1131,0
-11.608,-5.8313,0
-11.694,-5.5481,0
-11.776,-5.2636,0
-11.854,-4.9779,0
-11.927,-4.691,0
-11.996,-4.4031,0
-12.061,-4.1142,0
-12.121,-3.8243,0
-12.177,-3.5335,0
-12.229,-3.2419,0
-12.276,-2.9496,0
-12.318,-2.6566,0
-12.356,-2.3629,0
-12.39,-2.0688,0
-12.419,-1.7741,0
-12.444,-1.479,0
-12.464,-1.1836,0
-12.48,-0.88797,0
-12.491,-0.5921,0
-12.498,-0.29608,0
-12.5,0,0
-12.498,0.29608,0
-12.491,0.5921,0
-12.48,0.88797,0
-12.464,1.1836,0
-12.444,1.479,0
-12.419,1.7741,0
-12.39,2.0688,0
-12.356,2.3629,0
-12.318,2.6566,0
-12.276,2.9496,0
-12.229,3.2419,0
-12.177,3.5335,0
-12.121,3.8243,0
-12.061,4.1142,0
-11.996,4.4031,0
-11.927,4.691,0
-11.854,4.9779,0
-11.776,5.2636,0
-11.694,5.5481,0
-11.608,5.8313,0
-11.517,6.1131,0
-11.422,6.3936,0
-11.323,6.6726,0
-11.219,6.95,0
-11.112,7.2258,0
-11,7.5,0
-10.75,7.5,0
-10.5,7.5,0
-10.25,7.5,0
-10,7.5,0
-9.75,7.5,0
-9.5,7.5,0
-9.25,7.5,0
-9,7.5,0
-8.775,7.3375,0
-8.55,7.175,0
-8.325,7.0125,0
-8.1,6.85,0
-7.875,6.6875,0
-7.65,6.525,0
-7.425,6.3625,0
-7.2,6.2,0
-6.975,6.0375,0
-6.75,5.875,0
-6.525,5.7125,0
-6.3,5.55,0
-6.075,5.3875,0
-5.85,5.225,0
-5.625,5.0625,0
-5.4,4.9,0
-5.175,4.7375,0
-4.95,4.575,0
-4.725,4.4125,0
-4.5,4.25,0
-4.275,4.0875,0
-4.05,3.925,0
-3.825,3.7625,0
-3.6,3.6,0
-3.375,3.4375,0
-3.15,3.275,0
-2.925,3.1125,0
-2.7,2.95,0
-2.475,2.7875,0
-2.25,2.625,0
-2.025,2.4625,0
-1.8,2.3,0
-1.575,2.1375,0
-1.35,1.975,0
-1.125,1.8125,0
-0.9,1.65,0
-0.675,1.4875,0
-0.45,1.325,0
-0.225,1.1625,0
0,1,0
0.0087744,1.0046,0
0.0099318,0.75007,0
0.010032,0.5,0
0.010035,0.25,0
0.010035,0,0
0.010035,-0.25,0
0.010032,-0.5,0
0.0099318,-0.75007,0
0.0087744,-1.0046,0
-0.21915,-1.1705,0
-0.44414,-1.3331,0
-0.66914,-1.4956,0
-0.89414,-1.6581,0
-1.1191,-1.8206,0
-1.3441,-1.9831,0
-1.5691,-2.1456,0
-1.7941,-2.3081,0
-2.0191,-2.4706,0
-2.2441,-2.6331,0
-2.4691,-2.7956,0
-2.6941,-2.9581,0
-2.9191,-3.1206,0
-3.1441,-3.2831,0
-3.3691,-3.4456,0
-3.5941,-3.6081,0
-3.8191,-3.7706,0
-4.0441,-3.9331,0
-4.2691,-4.0956,0
-4.4941,-4.2581,0
-4.7191,-4.4206,0
-4.9441,-4.5831,0
-5.1691,-4.7456,0
-5.3941,-4.9081,0
-5.6191,-5.0706,0
-5.8441,-5.2331,0
-6.0691,-5.3956,0
-6.2941,-5.5581,0
-6.5191,-5.7206,0
-6.7441,-5.8831,0
-6.9691,-6.0456,0
-7.1941,-6.2081,0
-7.4191,-6.3706,0
-7.6441,-6.5331,0
-7.8691,-6.6956,0
-8.0941,-6.8581,0
-8.3191,-7.0206,0
-8.5441,-7.1831,0
-8.7692,-7.3456,0
-8.9969,-7.5091,0
-9.25,-7.51,0
-9.5,-7.51,0
-9.75,-7.51,0
-10,-7.51,0
-10.25,-7.51,0
-10.5,-7.51,0
-10.75,-7.5099,0
-11.006,-7.5085,0
-11.121,-7.2295,0
-11.229,-6.9535,0
-11.332,-6.676,0
-11.431,-6.3968,0
-11.526,-6.1162,0
-11.617,-5.8342,0
-11.704,-5.5509,0
-11.786,-5.2663,0
-11.864,-4.9804,0
-11.937,-4.6934,0
-12.006,-4.4053,0
-12.071,-4.1163,0
-12.131,-3.8262,0
-12.187,-3.5353,0
-12.238,-3.2436,0
-12.285,-2.9511,0
-12.328,-2.6579,0
-12.366,-2.3641,0
-12.4,-2.0698,0
-12.429,-1.775,0
-12.454,-1.4798,0
-12.474,-1.1842,0
-12.49,-0.88843,0
-12.501,-0.5924,0
-12.508,-0.29623,0
-12.51,6.5323e-17,0
-12.508,0.29623,0
-12.501,0.5924,0
-12.49,0.88843,0
-12.474,1.1842,0
-12.454,1.4798,0
-12.429,1.775,0
-12.4,2.0698,0
-12.366,2.3641,0
-12.328,2.6579,0
-12.285,2.9511,0
-12.238,3.2436,0
-12.187,3.5353,0
-12.131,3.8262,0
-12.071,4.1163,0
-12.006,4.4053,0
-11.937,4.6934,0
-11.864,4.9804,0
-11.786,5.2663,0
-11.704,5.5509,0
-11.617,5.8342,0
-11.526,6.1162,0
-11.431,6.3968,0
-11.332,6.676,0
-11.229,6.9535,0
-11.121,7.2295,0
-11.006,7.5085,0
-10.75,7.5099,0
-10.5,7.51,0
-10.25,7.51,0
-10,7.51,0
-9.75,7.51,0
-9.5,7.51,0
-9.25,7.51,0
-8.9969,7.5091,0
-8.7692,7.3456,0
-8.5441,7.1831,0
-8.3191,7.0206,0
-8.0941,6.8581,0
-7.8691,6.6956,0
-7.6441,6.5331,0
-7.4191,6.3706,0
-7.1941,6.2081,0
-6.9691,6.0456,0
-6.7441,5.8831,0
-6.5191,5.7206,0
-6.2941,5.5581,0
-6.0691,5.3956,0
-5.8441,5.2331,0
-5.6191,5.0706,0
-5.3941,4.9081,0
-5.1691,4.7456,0
-4.9441,4.5831,0
-4.7191,4.4206,0
-4.4941,4.2581,0
-4.2691,4.0956,0
-4.0441,3.9331,0
-3.8191,3.7706,0
-3.5941,3.6081,0
-3.3691,3.4456,0
-3.1441,3.2831,0
-2.9191,3.1206,0
-2.6941,2.9581,0
-2.4691,2.7956,0
-2.2441,2.6331,0
-2.0191,2.4706,0
-1.7941,2.3081,0
-1.5691,2.1456,0
-1.3441,1.9831,0
-1.1191,1.8206,0
-0.89414,1.6581,0
-0.66914,1.4956,0
-0.44414,1.3331,0
-0.21915,1.1705,0
0.0087744,1.0046,0
0.018723,1.01,0
0.021761,0.75026,0
0.022122,0.50002,0
0.022135,0.25,0
0.022135,-1.0842e-19,0
0.022135,-0.25,0
0.022122,-0.50002,0
0.021761,-0.75026,0
0.018723,-1.01,0
-0.21211,-1.18,0
-0.4371,-1.3428,0
-0.6621,-1.5054,0
-0.8871,-1.6679,0
-1.1121,-1.8304,0
-1.3371,-1.9929,0
-1.5621,-2.1554,0
-1.7871,-2.3179,0
-2.0121,-2.4804,0
-2.2371,-2.6429,0
-2.4621,-2.8054,0
-2.6871,-2.9679,0
-2.9121,-3.1304,0
-3.1371,-3.2929,0
-3.3621,-3.4554,0
-3.5871,-3.6179,0
-3.8121,-3.7804,0
-4.0371,-3.9429,0
-4.2621,-4.1054,0
-4.4871,-4.2679,0
-4.7121,-4.4304,0
-4.9371,-4.5929,0
-5.1621,-4.7554,0
-5.3871,-4.9179,0
-5.6121,-5.0804,0
-5.8371,-5.2429,0
-6.0621,-5.4054,0
-6.2871,-5.5679,0
-6.5121,-5.7304,0
-6.7371,-5.8929,0
-6.9621,-6.0554,0
-7.1871,-6.2179,0
-7.4121,-6.3804,0
-7.6371,-6.5429,0
-7.8621,-6.7054,0
-8.0871,-6.8679,0
-8.3121,-7.0304,0
-8.5371,-7.1929,0
-8.7623,-7.3553,0
-8.9932,-7.5197,0
-9.2498,-7.5219,0
-9.5,-7.5221,0
-9.75,-7.5221,0
-10,-7.5221,0
-10.25,-7.5221,0
-10.5,-7.5221,0
-10.75,-7.5217,0
-11.013,-7.518,0
-11.132,-7.234,0
-11.24,-6.9578,0
-11.343,-6.68,0
-11.443,-6.4008,0
-11.538,-6.12,0
-11.629,-5.8378,0
-11.715,-5.5543,0
-11.797,-5.2695,0
-11.875,-4.9835,0
-11.949,-4.6963,0
-12.018,-4.408,0
-12.082,-4.1188,0
-12.143,-3.8286,0
-12.199,-3.5375,0
-12.25,-3.2455,0
-12.297,-2.9529,0
-12.34,-2.6595,0
-12.378,-2.3656,0
-12.412,-2.0711,0
-12.441,-1.7761,0
-12.466,-1.4807,0
-12.486,-1.185,0
-12.502,-0.88897,0
-12.513,-0.59276,0
-12.52,-0.29641,0
-12.522,1.452e-16,0
-12.52,0.29641,0
-12.513,0.59276,0
-12.502,0.88897,0
-12.486,1.185,0
-12.466,1.4807,0
-12.441,1.7761,0
-12.412,2.0711,0
-12.378,2.3656,0
-12.34,2.6595,0
-12.297,2.9529,0
-12.25,3.2455,0
-12.199,3.5375,0
-12.143,3.8286,0
-12.082,4.1188,0
-12.018,4.408,0
-11.949,4.6963,0
-11.875,4.9835,0
-11.797,5.2695,0
-11.715,5.5543,0
-11.629,5.8378,0
-11.538,6.12,0
-11.443,6.4008,0
-11.343,6.68,0
-11.24,6.9578,0
-11.132,7.234,0
-11.013,7.518,0
-10.75,7.5217,0
-10.5,7.5221,0
-10.25,7.5221,0
-10,7.5221,0
-9.75,7.5221,0
-9.5,7.5221,0
-9.2498,7.5219,0
-8.9932,7.5197,0
-8.7623,7.3553,0
-8.5371,7.1929,0
-8.3121,7.0304,0
-8.0871,6.8679,0
-7.8621,6.7054,0
-7.6371,6.5429,0
-7.4121,6.3804,0
-7.1871,6.2179,0
-6.9621,6.0554,0
-6.7371,5.8929,0
-6.5121,5.7304,0
-6.2871,5.5679,0
-6.0621,5.4054,0
-5.8371,5.2429,0
-5.6121,5.0804,0
-5.3871,4.9179,0
-5.1621,4.7554,0
-4.9371,4.5929,0
-4.7121,4.4304,0
-4.4871,4.2679,0
-4.2621,4.1054,0
-4.0371,3.9429,0
-3.8121,3.7804,0
-3.5871,3.6179,0
-3.3621,3.4554,0
-3.1371,3.2929,0
-2.9121,3.1304,0
-2.6871,2.9679,0
-2.4621,2.8054,0
-2.2371,2.6429,0
-2.0121,2.4804,0
-1.7871,2.3179,0
-1.5621,2.1554,0
-1.3371,1.9929,0
-1.1121,1.8304,0
-0.8871,1.6679,0
-0.6621,1.5054,0
-0.4371,1.3428,0
-0.21211,1.18,0
0.018723,1.01,0
0.029972,1.0163,0
0.035814,0.75068,0
0.036683,0.50005,0
0.036729,0.25,0
0.036731,-4.3368e-19,0
0.036729,-0.25,0
0.036683,-0.50005,0
0.035814,-0.75068,0
0.029972,-1.0163,0
-0.20364,-1.1911,0
-0.42863,-1.3545,0
-0.65364,-1.5171,0
-0.87864,-1.6796,0
-1.1036,-1.8421,0
-1.3286,-2.0046,0
-1.5536,-2.1671,0
-1.7786,-2.3296,0
-2.0036,-2.4921,0
-2.2286,-2.6546,0
-2.4536,-2.8171,0
-2.6786,-2.9796,0
-2.9036,-3.1421,0
-3.1286,-3.3046,0
-3.3536,-3.4671,0
-3.5786,-3.6296,0
-3.8036,-3.7921,0
-4.0286,-3.9546,0
-4.2536,-4.1171,0
-4.4786,-4.2796,0
-4.7036,-4.4421,0
-4.9286,-4.6046,0
-5.1536,-4.7671,0
-5.3786,-4.9296,0
-5.6036,-5.0921,0
-5.8286,-5.2546,0
-6.0536,-5.4171,0
-6.2786,-5.5796,0
-6.5036,-5.7421,0
-6.7286,-5.9046,0
-6.9536,-6.0671,0
-7.1786,-6.2296,0
-7.4036,-6.3921,0
-7.6286,-6.5546,0
-7.8536,-6.7171,0
-8.0786,-6.8796,0
-8.3036,-7.0421,0
-8.5287,-7.2046,0
-8.7542,-7.3669,0
-8.9889,-7.5319,0
-9.2495,-7.5361,0
-9.5,-7.5367,0
-9.75,-7.5367,0
-10,-7.5367,0
-10.25,-7.5367,0
-10.5,-7.5367,0
-10.751,-7.5356,0
-11.021,-7.5284,0
-11.144,-7.2395,0
-11.253,-6.9629,0
-11.357,-6.6849,0
-11.456,-6.4054,0
-11.551,-6.1245,0
-11.642,-5.8421,0
-11.729,-5.5584,0
-11.811,-5.2733,0
-11.889,-4.9871,0
-11.962,-4.6997,0
-12.032,-4.4113,0
-12.096,-4.1218,0
-12.157,-3.8314,0
-12.213,-3.5401,0
-12.264,-3.2479,0
-12.311,-2.955,0
-12.354,-2.6615,0
-12.392,-2.3673,0
-12.426,-2.0726,0
-12.455,-1.7774,0
-12.48,-1.4818,0
-12.5,-1.1858,0
-12.516,-0.88962,0
-12.527,-0.59319,0
-12.534,-0.29663,0
-12.536,2.4056e-16,0
-12.534,0.29663,0
-12.527,0.59319,0
-12.516,0.88962,0
-12.5,1.1858,0
-12.48,1.4818,0
-12.455,1.7774,0
-12.426,2.0726,0
-12.392,2.3673,0
-12.354,2.6615,0
-12.311,2.955,0
-12.264,3.2479,0
-12.213,3.5401,0
-12.157,3.8314,0
-12.096,4.1218,0
-12.032,4.4113,0
-11.962,4.6997,0
-11.889,4.9871,0
-11.811,5.2733,0
-11.729,5.5584,0
-11.642,5.8421,0
-11.551,6.1245,0
-11.456,6.4054,0
-11.357,6.6849,0
-11.253,6.9629,0
-11.144,7.2395,0
-11.021,7.5284,0
-10.751,7.5356,0
-10.5,7.5367,0
-10.25,7.5367,0
-10,7.5367,0
-9.75,7.5367,0
-9.5,7.5367,0
-9.2495,7.5361,0
-8.9889,7.5319,0
-8.7542,7.3669,0
-8.5287,7.2046,0
-8.3036,7.0421,0
-8.0786,6.8796,0
-7.8536,6.7171,0
-7.6286,6.5546,0
-7.4036,6.3921,0
-7.1786,6.2296,0
-6.9536,6.0671,0
-6.7286,5.9046,0
-6.5036,5.7421,0
-6.2786,5.5796,0
-6.0536,5.4171,0
-5.8286,5.2546,0
-5.6036,5.0921,0
-5.3786,4.9296,0
-5.1536,4.7671,0
-4.9286,4.6046,0
-4.7036,4.4421,0
-4.4786,4.2796,0
-4.2536,4.1171,0
-4.0286,3.9546,0
-3.8036,3.7921,0
-3.5786,3.6296,0
-3.3536,3.4671,0
-3.1286,3.3046,0
-2.9036,3.1421,0
-2.6786,2.9796,0
-2.4536,2.8171,0
-2.2286,2.6546,0
-2.0036,2.4921,0
-1.7786,2.3296,0
-1.5536,2.1671,0
-1.3286,2.0046,0
-1.1036,1.8421,0
-0.87864,1.6796,0
-0.65364,1.5171,0
-0.42863,1.3545,0
-0.20364,1.1911,0
0.029972,1.0163,0
0.04277,1.0235,0
0.052463,0.75145,0
0.054202,0.50015,0
0.054331,0.25001,0
0.054341,-7.5894e-19,0
0.054331,-0.25001,0
0.054202,-0.50015,0
0.052463,-0.75145,0
0.04277,-1.0235,0
-0.19341,-1.2043,0
-0.41844,-1.3685,0
-0.64346,-1.5312,0
-0.86846,-1.6937,0
-1.0935,-1.8562,0
-1.3185,-2.0187,0
-1.5435,-2.1812,0
-1.7685,-2.3437,0
-1.9935,-2.5062,0
-2.2185,-2.6687,0
-2.4435,-2.8312,0
-2.6685,-2.9937,0
-2.8935,-3.1562,0
-3.1185,-3.3187,0
-3.3435,-3.4812,0
-3.5685,-3.6437,0
-3.7935,-3.8062,0
-4.0185,-3.9687,0
-4.2435,-4.1312,0
-4.4685,-4.2937,0
-4.6935,-4.4562,0
-4.9185,-4.6187,0
-5.1435,-4.7812,0
-5.3685,-4.9437,0
-5.5935,-5.1062,0
-5.8185,-5.2687,0
-6.0435,-5.4312,0
-6.2685,-5.5937,0
-6.4935,-5.7562,0
-6.7185,-5.9187,0
-6.9435,-6.0812,0
-7.1685,-6.2437,0
-7.3935,-6.4062,0
-7.6185,-6.5687,0
-7.8435,-6.7312,0
-8.0685,-6.8937,0
-8.2935,-7.0562,0
-8.5186,-7.2187,0
-8.7447,-7.3808,0
-8.9837,-7.5461,0
-9.249,-7.553,0
-9.4999,-7.5542,0
-9.75,-7.5543,0
-10,-7.5543,0
-10.25,-7.5543,0
-10.5,-7.5542,0
-10.752,-7.552,0
-11.03,-7.54,0
-11.159,-7.2461,0
-11.269,-6.9691,0
-11.373,-6.6908,0
-11.472,-6.4111,0
-11.568,-6.1298,0
-11.659,-5.8472,0
-11.745,-5.5632,0
-11.828,-5.278,0
-11.906,-4.9915,0
-11.979,-4.7039,0
-12.048,-4.4151,0
-12.113,-4.1254,0
-12.174,-3.8347,0
-12.23,-3.5432,0
-12.281,-3.2508,0
-12.328,-2.9576,0
-12.371,-2.6638,0
-12.409,-2.3694,0
-12.443,-2.0744,0
-12.472,-1.779,0
-12.497,-1.4831,0
-12.517,-1.1869,0
-12.533,-0.8904,0
-12.544,-0.59372,0
-12.551,-0.29689,0
-12.553,3.5207e-16,0
-12.551,0.29689,0
-12.544,0.59372,0
-12.533,0.8904,0
-12.517,1.1869,0
-12.497,1.4831,0
-12.472,1.779,0
-12.443,2.0744,0
-12.409,2.3694,0
-12.371,2.6638,0
-12.328,2.9576,0
-12.281,3.2508,0
-12.23,3.5432,0
-12.174,3.8347,0
-12.113,4.1254,0
-12.048,4.4151,0
-11.979,4.7039,0
-11.906,4.9915,0
-11.828,5.278,0
-11.745,5.5632,0
-11.659,5.8472,0
-11.568,6.1298,0
-11.472,6.4111,0
-11.373,6.6908,0
-11.269,6.9691,0
-11.159,7.2461,0
-11.03,7.54,0
-10.752,7.552,0
-10.5,7.5542,0
-10.25,7.5543,0
-10,7.5543,0
-9.75,7.5543,0
-9.4999,7.5542,0
-9.249,7.553,0
-8.9837,7.5461,0
-8.7447,7.3808,0
-8.5186,7.2187,0
-8.2935,7.0562,0
-8.0685,6.8937,0
-7.8435,6.7312,0
-7.6185,6.5687,0
-7.3935,6.4062,0
-7.1685,6.2437,0
-6.9435,6.0812,0
-6.7185,5.9187,0
-6.4935,5.7562,0
-6.2685,5.5937,0
-6.0435,5.4312,0
-5.8185,5.2687,0
-5.5935,5.1062,0
-5.3685,4.9437,0
-5.1435,4.7812,0
-4.9185,4.6187,0
-4.6935,4.4562,0
-4.4685,4.2937,0
-4.2435,4.1312,0
-4.0185,3.9687,0
-3.7935,3.8062,0
-3.5685,3.6437,0
-3.3435,3.4812,0
-3.1185,3.3187,0
-2.8935,3.1562,0
-2.6685,2.9937,0
-2.4435,2.8312,0
-2.2185,2.6687,0
-1.9935,2.5062,0
-1.7685,2.3437,0
-1.5435,2.1812,0
-1.3185,2.0187,0
-1.0935,1.8562,0
-0.86846,1.6937,0
-0.64346,1.5312,0
-0.41844,1.3685,0
-0.19341,1.2043,0
0.04277,1.0235,0
0.057407,1.0318,0
0.072131,0.75277,0
0.07525,0.50036,0
0.075561,0.25004,0
0.075592,-8.6736e-19,0
0.075561,-0.25004,0
0.07525,-0.50036,0
0.072131,-0.75277,0
0.057407,-1.0318,0
-0.18105,-1.2196,0
-0.40615,-1.3853,0
-0.63121,-1.5481,0
-0.85622,-1.7106,0
-1.0812,-1.8731,0
-1.3062,-2.0356,0
-1.5312,-2.1981,0
-1.7562,-2.3606,0
-1.9812,-2.5231,0
-2.2062,-2.6856,0
-2.4312,-2.8481,0
-2.6562,-3.0106,0
-2.8812,-3.1731,0
-3.1062,-3.3356,0
-3.3312,-3.4981,0
-3.5562,-3.6606,0
-3.7812,-3.8231,0
-4.0062,-3.9856,0
-4.2312,-4.1481,0
-4.4562,-4.3106,0
-4.6812,-4.4731,0
-4.9062,-4.6356,0
-5.1312,-4.7981,0
-5.3562,-4.9606,0
-5.5812,-5.1231,0
-5.8062,-5.2856,0
-6.0312,-5.4481,0
-6.2562,-5.6106,0
-6.4812,-5.7731,0
-6.7062,-5.9356,0
-6.9312,-6.0981,0
-7.1562,-6.2606,0
-7.3812,-6.4231,0
-7.6062,-6.5856,0
-7.8312,-6.7481,0
-8.0562,-6.9106,0
-8.2812,-7.0731,0
-8.5065,-7.2356,0
-8.7336,-7.3975,0
-8.9777,-7.5627,0
-9.248,-7.5731,0
-9.4997,-7.5754,0
-9.75,-7.5756,0
-10,-7.5756,0
-10.25,-7.5756,0
-10.5,-7.5752,0
-10.753,-7.5713,0
-11.04,-7.5531,0
-11.177,-7.2543,0
-11.288,-6.9765,0
-11.392,-6.6979,0
-11.492,-6.4178,0
-11.587,-6.1363,0
-11.678,-5.8534,0
-11.765,-5.5691,0
-11.847,-5.2835,0
-11.925,-4.9967,0
-11.999,-4.7088,0
-12.068,-4.4198,0
-12.133,-4.1297,0
-12.194,-3.8388,0
-12.25,-3.5469,0
-12.301,-3.2542,0
-12.349,-2.9607,0
-12.391,-2.6666,0
-12.43,-2.3719,0
-12.463,-2.0766,0
-12.493,-1.7808,0
-12.518,-1.4847,0
-12.538,-1.1881,0
-12.554,-0.89134,0
-12.565,-0.59434,0
-12.572,-0.2972,0
-12.574,4.8098e-16,0
-12.572,0.2972,0
-12.565,0.59434,0
-12.554,0.89134,0
-12.538,1.1881,0
-12.518,1.4847,0
-12.493,1.7808,0
-12.463,2.0766,0
-12.43,2.3719,0
-12.391,2.6666,0
-12.349,2.9607,0
-12.301,3.2542,0
-12.25,3.5469,0
-12.194,3.8388,0
-12.133,4.1297,0
-12.068,4.4198,0
-11.999,4.7088,0
-11.925,4.9967,0
-11.847,5.2835,0
-11.765,5.5691,0
-11.678,5.8534,0
-11.587,6.1363,0
-11.492,6.4178,0
-11.392,6.6979,0
-11.288,6.9765,0
-11.177,7.2543,0
-11.04,7.5531,0
-10.753,7.5713,0
-10.5,7.5752,0
-10.25,7.5756,0
-10,7.5756,0
-9.75,7.5756,0
-9.4997,7.5754,0
-9.248,7.5731,0
-8.9777,7.5627,0
-8.7336,7.3975,0
-8.5065,7.2356,0
-8.2812,7.0731,0
-8.0562,6.9106,0
-7.8312,6.7481,0
-7.6062,6.5856,0
-7.3812,6.4231,0
-7.1562,6.2606,0
-6.9312,6.0981,0
-6.7062,5.9356,0
-6.4812,5.7731,0
-6.2562,5.6106,0
-6.0312,5.4481,0
-5.8062,5.2856,0
-5.5812,5.1231,0
-5.3562,4.9606,0
-5.1312,4.7981,0
-4.9062,4.6356,0
-4.6812,4.4731,0
-4.4562,4.3106,0
-4.2312,4.1481,0
-4.0062,3.9856,0
-3.7812,3.8231,0
-3.5562,3.6606,0
-3.3312,3.4981,0
-3.1062,3.3356,0
-2.8812,3.1731,0
-2.6562,3.0106,0
-2.4312,2.8481,0
-2.2062,2.6856,0
-1.9812,2.5231,0
-1.7562,2.3606,0
-1.5312,2.1981,0
-1.3062,2.0356,0
-1.0812,1.8731,0
-0.85622,1.7106,0
-0.63121,1.5481,0
-0.40615,1.3853,0
-0.18105,1.2196,0
0.057407,1.0318,0
0.074232,1.0414,0
0.095294,0.75491,0
0.10048,0.5008,0
0.10116,0.2501,0
0.10124,-8.6736e-19,0
0.10116,-0.2501,0
0.10048,-0.5008,0
0.095294,-0.75491,0
0.074232,-1.0414,0
-0.16609,-1.2374,0
-0.39134,-1.4052,0
-0.61646,-1.5684,0
-0.84148,-1.731,0
-1.0665,-1.8935,0
-1.2915,-2.056,0
-1.5165,-2.2185,0
-1.7415,-2.381,0
-1.9665,-2.5435,0
-2.1915,-2.706,0
-2.4165,-2.8685,0
-2.6415,-3.031,0
-2.8665,-3.1935,0
-3.0915,-3.356,0
-3.3165,-3.5185,0
-3.5415,-3.681,0
-3.7665,-3.8435,0
-3.9915,-4.006,0
-4.2165,-4.1685,0
-4.4415,-4.331,0
-4.6665,-4.4935,0
-4.8915,-4.656,0
-5.1165,-4.8185,0
-5.3415,-4.981,0
-5.5665,-5.1435,0
-5.7915,-5.306,0
-6.0165,-5.4685,0
-6.2415,-5.631,0
-6.4665,-5.7935,0
-6.6915,-5.956,0
-6.9165,-6.1185,0
-7.1415,-6.281,0
-7.3665,-6.4435,0
-7.5915,-6.606,0
-7.8165,-6.7685,0
-8.0415,-6.931,0
-8.2665,-7.0935,0
-8.492,-7.2559,0
-8.7206,-7.4175,0
-8.9705,-7.5821,0
-9.2464,-7.597,0
-9.4994,-7.6007,0
-9.7499,-7.6012,0
-10,-7.6012,0
-10.25,-7.6011,0
-10.501,-7.6003,0
-10.756,-7.5938,0
-11.052,-7.5678,0
-11.197,-7.2643,0
-11.311,-6.9855,0
-11.415,-6.7063,0
-11.515,-6.4259,0
-11.611,-6.144,0
-11.702,-5.8607,0
-11.789,-5.5761,0
-11.871,-5.2902,0
-11.949,-5.003,0
-12.023,-4.7147,0
-12.092,-4.4254,0
-12.157,-4.1349,0
-12.218,-3.8436,0
-12.274,-3.5514,0
-12.326,-3.2583,0
-12.373,-2.9645,0
-12.416,-2.67,0
-12.454,-2.3749,0
-12.488,-2.0792,0
-12.517,-1.7831,0
-12.542,-1.4865,0
-12.562,-1.1896,0
-12.578,-0.89246,0
-12.59,-0.59509,0
-12.596,-0.29758,0
-12.599,5.6294e-16,0
-12.596,0.29758,0
-12.59,0.59509,0
-12.578,0.89246,0
-12.562,1.1896,0
-12.542,1.4865,0
-12.517,1.7831,0
-12.488,2.0792,0
-12.454,2.3749,0
-12.416,2.67,0
-12.373,2.9645,0
-12.326,3.2583,0
-12.274,3.5514,0
-12.218,3.8436,0
-12.157,4.1349,0
-12.092,4.4254,0
-12.023,4.7147,0
-11.949,5.003,0
-11.871,5.2902,0
-11.789,5.5761,0
-11.702,5.8607,0
-11.611,6.144,0
-11.515,6.4259,0
-11.415,6.7063,0
-11.311,6.9855,0
-11.197,7.2643,0
-11.052,7.5678,0
-10.756,7.5938,0
-10.501,7.6003,0
-10.25,7.6011,0
-10,7.6012,0
-9.7499,7.6012,0
-9.4994,7.6007,0
-9.2464,7.597,0
-8.9705,7.5821,0
-8.7206,7.4175,0
-8.492,7.2559,0
-8.2665,7.0935,0
-8.0415,6.931,0
-7.8165,6.7685,0
-7.5915,6.606,0
-7.3665,6.4435,0
-7.1415,6.281,0
-6.9165,6.1185,0
-6.6915,5.956,0
-6.4665,5.7935,0
-6.2415,5.631,0
-6.0165,5.4685,0
-5.7915,5.306,0
-5.5665,5.1435,0
-5.3415,4.981,0
-5.1165,4.8185,0
-4.8915,4.656,0
-4.6665,4.4935,0
-4.4415,4.331,0
-4.2165,4.1685,0
-3.9915,4.006,0
-3.7665,3.8435,0
-3.5415,3.681,0
-3.3165,3.5185,0
-3.0915,3.356,0
-2.8665,3.1935,0
-2.6415,3.031,0
-2.4165,2.8685,0
-2.1915,2.706,0
-1.9665,2.5435,0
-1.7415,2.381,0
-1.5165,2.2185,0
-1.2915,2.056,0
-1.0665,1.8935,0
-0.84148,1.731,0
-0.61646,1.5684,0
-0.39134,1.4052,0
-0.16609,1.2374,0
0.074232,1.0414,0
0.093676,1.0526,0
0.12249,0.75819,0
0.13064,0.50164,0
0.13199,0.25026,0
0.13218,-8.6736e-19,0
0.13199,-0.25026,0
0.13064,-0.50164,0
0.12249,-0.75819,0
0.093676,-1.0526,0
-0.14798,-1.258,0
-0.37346,-1.429,0
-0.59869,-1.5929,0
-0.82373,-1.7556,0
-1.0487,-1.9181,0
-1.2737,-2.0806,0
-1.4987,-2.2431,0
-1.7237,-2.4056,0
-1.9487,-2.5681,0
-2.1737,-2.7306,0
-2.3987,-2.8931,0
-2.6237,-3.0556,0
-2.8487,-3.2181,0
-3.0737,-3.3806,0
-3.2987,-3.5431,0
-3.5237,-3.7056,0
-3.7487,-3.8681,0
-3.9737,-4.0306,0
-4.1987,-4.1931,0
-4.4237,-4.3556,0
-4.6487,-4.5181,0
-4.8737,-4.6806,0
-5.0987,-4.8431,0
-5.3237,-5.0056,0
-5.5487,-5.1681,0
-5.7737,-5.3306,0
-5.9987,-5.4931,0
-6.2237,-5.6556,0
-6.4487,-5.8181,0
-6.6737,-5.9806,0
-6.8987,-6.1431,0
-7.1237,-6.3056,0
-7.3487,-6.4681,0
-7.5737,-6.6306,0
-7.7987,-6.7931,0
-8.0238,-6.9556,0
-8.2489,-7.1181,0
-8.4749,-7.2804,0
-8.7056,-7.4415,0
-8.9621,-7.605,0
-9.2439,-7.6252,0
-9.4988,-7.6311,0
-9.7498,-7.6321,0
-10,-7.6322,0
-10.25,-7.6319,0
-10.502,-7.6303,0
-10.76,-7.6202,0
-11.066,-7.5845,0
-11.221,-7.2766,0
-11.338,-6.9963,0
-11.443,-6.7165,0
-11.543,-6.4356,0
-11.639,-6.1533,0
-11.73,-5.8696,0
-11.817,-5.5845,0
-11.9,-5.2982,0
-11.978,-5.0106,0
-12.052,-4.7219,0
-12.121,-4.432,0
-12.186,-4.1412,0
-12.247,-3.8494,0
-12.303,-3.5567,0
-12.355,-3.2632,0
-12.402,-2.969,0
-12.445,-2.674,0
-12.483,-2.3785,0
-12.517,-2.0823,0
-12.547,-1.7858,0
-12.572,-1.4888,0
-12.592,-1.1914,0
-12.608,-0.89381,0
-12.619,-0.59599,0
-12.626,-0.29803,0
-12.628,6.5467e-16,0
-12.626,0.29803,0
-12.619,0.59599,0
-12.608,0.89381,0
-12.592,1.1914,0
-12.572,1.4888,0
-12.547,1.7858,0
-12.517,2.0823,0
-12.483,2.3785,0
-12.445,2.674,0
-12.402,2.969,0
-12.355,3.2632,0
-12.303,3.5567,0
-12.247,3.8494,0
-12.186,4.1412,0
-12.121,4.432,0
-12.052,4.7219,0
-11.978,5.0106,0
-11.9,5.2982,0
-11.817,5.5845,0
-11.73,5.8696,0
-11.639,6.1533,0
-11.543,6.4356,0
-11.443,6.7165,0
-11.338,6.9963,0
-11.221,7.2766,0
-11.066,7.5845,0
-10.76,7.6202,0
-10.502,7.6303,0
-10.25,7.6319,0
-10,7.6322,0
-9.7498,7.6321,0
-9.4988,7.6311,0
-9.2439,7.6252,0
-8.9621,7.605,0
-8.7056,7.4415,0
-8.4749,7.2804,0
-8.2489,7.1181,0
-8.0238,6.9556,0
-7.7987,6.7931,0
-7.5737,6.6306,0
-7.3487,6.4681,0
-7.1237,6.3056,0
-6.8987,6.1431,0
-6.6737,5.9806,0
-6.4487,5.8181,0
-6.2237,5.6556,0
-5.9987,5.4931,0
-5.7737,5.3306,0
-5.5487,5.1681,0
-5.3237,5.0056,0
-5.0987,4.8431,0
-4.8737,4.6806,0
-4.6487,4.5181,0
-4.4237,4.3556,0
-4.1987,4.1931,0
-3.9737,4.0306,0
-3.7487,3.8681,0
-3.5237,3.7056,0
-3.2987,3.5431,0
-3.0737,3.3806,0
-2.8487,3.2181,0
-2.6237,3.0556,0
-2.3987,2.8931,0
-2.1737,2.7306,0
-1.9487,2.5681,0
-1.7237,2.4056,0
-1.4987,2.2431,0
-1.2737,2.0806,0
-1.0487,1.9181,0
-0.82373,1.7556,0
-0.59869,1.5929,0
-0.37346,1.429,0
-0.14798,1.258,0
0.093676,1.0526,0
0.11628,1.0655,0
0.15431,0.76305,0
0.16655,0.50316,0
0.16907,0.25062,0
0.16949,-1.7347e-18,0
0.16907,-0.25062,0
0.16655,-0.50316,0
0.15431,-0.76305,0
0.11628,-1.0655,0
-0.12603,-1.2818,0
-0.35184,-1.457,0
-0.57726,-1.6221,0
-0.80234,-1.7851,0
-1.0273,-1.9477,0
-1.2524,-2.1102,0
-1.4774,-2.2727,0
-1.7024,-2.4352,0
-1.9274,-2.5977,0
-2.1524,-2.7602,0
-2.3774,-2.9227,0
-2.6024,-3.0852,0
-2.8274,-3.2477,0
-3.0524,-3.4102,0
-3.2774,-3.5727,0
-3.5024,-3.7352,0
-3.7274,-3.8977,0
-3.9524,-4.0602,0
-4.1774,-4.2227,0
-4.4024,-4.3852,0
-4.6274,-4.5477,0
-4.8524,-4.7102,0
-5.0774,-4.8727,0
-5.3024,-5.0352,0
-5.5274,-5.1977,0
-5.7524,-5.3602,0
-5.9774,-5.5227,0
-6.2024,-5.6852,0
-6.4274,-5.8477,0
-6.6524,-6.0102,0
-6.8774,-6.1727,0
-7.1024,-6.3352,0
-7.3274,-6.4977,0
-7.5524,-6.6602,0
-7.7774,-6.8227,0
-8.0024,-6.9852,0
-8.2278,-7.1476,0
-8.4546,-7.3098,0
-8.6884,-7.4702,0
-8.9522,-7.632,0
-9.2402,-7.6585,0
-9.4977,-7.6674,0
-9.7496,-7.6692,0
-10,-7.6695,0
-10.251,-7.6689,0
-10.504,-7.6659,0
-10.766,-7.6508,0
-11.081,-7.6036,0
-11.248,-7.2917,0
-11.369,-7.0096,0
-11.476,-6.7288,0
-11.577,-6.4473,0
-11.672,-6.1644,0
-11.764,-5.8802,0
-11.851,-5.5946,0
-11.934,-5.3077,0
-12.012,-5.0196,0
-12.086,-4.7304,0
-12.156,-4.44,0
-12.221,-4.1487,0
-12.282,-3.8564,0
-12.338,-3.5631,0
-12.39,-3.2691,0
-12.437,-2.9743,0
-12.48,-2.6788,0
-12.519,-2.3828,0
-12.553,-2.0861,0
-12.582,-1.789,0
-12.607,-1.4915,0
-12.627,-1.1936,0
-12.643,-0.89542,0
-12.655,-0.59706,0
-12.661,-0.29857,0
-12.664,7.5615e-16,0
-12.661,0.29857,0
-12.655,0.59706,0
-12.643,0.89542,0
-12.627,1.1936,0
-12.607,1.4915,0
-12.582,1.789,0
-12.553,2.0861,0
-12.519,2.3828,0
-12.48,2.6788,0
-12.437,2.9743,0
-12.39,3.2691,0
-12.338,3.5631,0
-12.282,3.8564,0
-12.221,4.1487,0
-12.156,4.44,0
-12.086,4.7304,0
-12.012,5.0196,0
-11.934,5.3077,0
-11.851,5.5946,0
-11.764,5.8802,0
-11.672,6.1644,0
-11.577,6.4473,0
-11.476,6.7288,0
-11.369,7.0096,0
-11.248,7.2917,0
-11.081,7.6036,0
-10.766,7.6508,0
-10.504,7.6659,0
-10.251,7.6689,0
-10,7.6695,0
-9.7496,7.6692,0
-9.4977,7.6674,0
-9.2402,7.6585,0
-8.9522,7.632,0
-8.6884,7.4702,0
-8.4546,7.3098,0
-8.2278,7.1476,0
-8.0024,6.9852,0
-7.7774,6.8227,0
-7.5524,6.6602,0
-7.3274,6.4977,0
-7.1024,6.3352,0
-6.8774,6.1727,0
-6.6524,6.0102,0
-6.4274,5.8477,0
-6.2024,5.6852,0
-5.9774,5.5227,0
-5.7524,5.3602,0
-5.5274,5.1977,0
-5.3024,5.0352,0
-5.0774,4.8727,0
-4.8524,4.7102,0
-4.6274,4.5477,0
-4.4024,4.3852,0
-4.1774,4.2227,0
-3.9524,4.0602,0
-3.7274,3.8977,0
-3.5024,3.7352,0
-3.2774,3.5727,0
-3.0524,3.4102,0
-2.8274,3.2477,0
-2.6024,3.0852,0
-2.3774,2.9227,0
-2.1524,2.7602,0
-1.9274,2.5977,0
-1.7024,2.4352,0
-1.4774,2.2727,0
-1.2524,2.1102,0
-1.0273,1.9477,0
-0.80234,1.7851,0
-0.57726,1.6221,0
-0.35184,1.457,0
-0.12603,1.2818,0
0.11628,1.0655,0
0.14275,1.0806,0
0.19145,0.77002,0
0.20913,0.50579,0
0.21354,0.25136,0
0.2144,-3.4694e-18,0
0.21354,-0.25136,0
0.20913,-0.50579,0
0.19145,-0.77002,0
0.14275,-1.0806,0
-0.099448,-1.3089,0
-0.32565,-1.49,0
-0.55137,-1.6571,0
-0.77653,-1.8206,0
-1.0016,-1.9833,0
-1.2266,-2.1459,0
-1.4516,-2.3084,0
-1.6766,-2.4709,0
-1.9016,-2.6334,0
-2.1266,-2.7959,0
-2.3516,-2.9584,0
-2.5766,-3.1209,0
-2.8016,-3.2834,0
-3.0266,-3.4459,0
-3.2516,-3.6084,0
-3.4766,-3.7709,0
-3.7016,-3.9334,0
-3.9266,-4.0959,0
-4.1516,-4.2584,0
-4.3766,-4.4209,0
-4.6016,-4.5834,0
-4.8266,-4.7459,0
-5.0516,-4.9084,0
-5.2766,-5.0709,0
-5.5016,-5.2334,0
-5.7266,-5.3959,0
-5.9516,-5.5584,0
-6.1766,-5.7209,0
-6.4016,-5.8834,0
-6.6266,-6.0459,0
-6.8516,-6.2084,0
-7.0766,-6.3709,0
-7.3016,-6.5334,0
-7.5266,-6.6959,0
-7.7516,-6.8584,0
-7.9768,-7.0209,0
-8.2025,-7.1832,0
-8.4308,-7.3452,0
-8.6687,-7.5046,0
-8.9404,-7.6639,0
-9.2349,-7.6978,0
-9.4957,-7.7107,0
-9.749,-7.7139,0
-10,-7.7144,0
-10.252,-7.7133,0
-10.507,-7.7079,0
-10.774,-7.6863,0
-11.099,-7.6256,0
-11.279,-7.3104,0
-11.407,-7.0258,0
-11.516,-6.7436,0
-11.617,-6.4613,0
-11.713,-6.1778,0
-11.804,-5.8929,0
-11.892,-5.6067,0
-11.975,-5.3192,0
-12.053,-5.0305,0
-12.128,-4.7406,0
-12.197,-4.4497,0
-12.263,-4.1577,0
-12.324,-3.8647,0
-12.38,-3.5709,0
-12.432,-3.2762,0
-12.479,-2.9808,0
-12.523,-2.6846,0
-12.561,-2.3879,0
-12.595,-2.0906,0
-12.625,-1.7929,0
-12.649,-1.4947,0
-12.67,-1.1962,0
-12.686,-0.89736,0
-12.697,-0.59836,0
-12.704,-0.29921,0
-12.706,7.7176e-16,0
-12.704,0.29921,0
-12.697,0.59836,0
-12.686,0.89736,0
-12.67,1.1962,0
-12.649,1.4947,0
-12.625,1.7929,0
-12.595,2.0906,0
-12.561,2.3879,0
-12.523,2.6846,0
-12.479,2.9808,0
-12.432,3.2762,0
-12.38,3.5709,0
-12.324,3.8647,0
-12.263,4.1577,0
-12.197,4.4497,0
-12.128,4.7406,0
-12.053,5.0305,0
-11.975,5.3192,0
-11.892,5.6067,0
-11.804,5.8929,0
-11.713,6.1778,0
-11.617,6.4613,0
-11.516,6.7436,0
-11.407,7.0258,0
-11.279,7.3104,0
-11.099,7.6256,0
-10.774,7.6863,0
-10.507,7.7079,0
-10.252,7.7133,0
-10,7.7144,0
-9.749,7.7139,0
-9.4957,7.7107,0
-9.2349,7.6978,0
-8.9404,7.6639,0
-8.6687,7.5046,0
-8.4308,7.3452,0
-8.2025,7.1832,0
-7.9768,7.0209,0
-7.7516,6.8584,0
-7.5266,6.6959,0
-7.3016,6.5334,0
-7.0766,6.3709,0
-6.8516,6.2084,0
-6.6266,6.0459,0
-6.4016,5.8834,0
-6.1766,5.7209,0
-5.9516,5.5584,0
-5.7266,5.3959,0
-5.5016,5.2334,0
-5.2766,5.0709,0
-5.0516,4.9084,0
-4.8266,4.7459,0
-4.6016,4.5834,0
-4.3766,4.4209,0
-4.1516,4.2584,0
-3.9266,4.0959,0
-3.7016,3.9334,0
-3.4766,3.7709,0
-3.2516,3.6084,0
-3.0266,3.4459,0
-2.8016,3.2834,0
-2.5766,3.1209,0
-2.3516,2.9584,0
-2.1266,2.7959,0
-1.9016,2.6334,0
-1.6766,2.4709,0
-1.4516,2.3084,0
-1.2266,2.1459,0
-1.0016,1.9833,0
-0.77653,1.8206,0
-0.55137,1.6571,0
-0.32565,1.49,0
-0.099448,1.3089,0
0.14275,1.0806,0
0.17394,1.0983,0
0.23469,0.77975,0
0.25936,0.51009,0
0.26665,0.25279,0
0.26825,-6.9389e-18,0
0.26665,-0.25279,0
0.25936,-0.51009,0
0.23469,-0.77975,0
0.17394,-1.0983,0
-0.067272,-1.3398,0
-0.2939,-1.5284,0
-0.52004,-1.6987,0
-0.74536,-1.8633,0
-0.97045,-2.0263,0
-1.1955,-2.1889,0
-1.4205,-2.3515,0
-1.6455,-2.514,0
-1.8705,-2.6765,0
-2.0955,-2.839,0
-2.3205,-3.0015,0
-2.5455,-3.164,0
-2.7705,-3.3265,0
-2.9955,-3.489,0
-3.2205,-3.6515,0
-3.4455,-3.814,0
-3.6705,-3.9765,0
-3.8955,-4.139,0
-4.1205,-4.3015,0
-4.3455,-4.464,0
-4.5705,-4.6265,0
-4.7955,-4.789,0
-5.0205,-4.9515,0
-5.2455,-5.114,0
-5.4705,-5.2765,0
-5.6955,-5.439,0
-5.9205,-5.6015,0
-6.1455,-5.764,0
-6.3705,-5.9265,0
-6.5955,-6.089,0
-6.8205,-6.2515,0
-7.0455,-6.414,0
-7.2705,-6.5765,0
-7.4955,-6.739,0
-7.7206,-6.9014,0
-7.946,-7.0639,0
-8.1725,-7.2261,0
-8.403,-7.3877,0
-8.6463,-7.5458,0
-8.9265,-7.7021,0
-9.2273,-7.744,0
-9.4924,-7.762,0
-9.748,-7.7674,0
-10,-7.7683,0
-10.253,-7.7661,0
-10.512,-7.7573,0
-10.785,-7.7272,0
-11.12,-7.6511,0
-11.315,-7.3334,0
-11.451,-7.0458,0
-11.562,-6.7617,0
-11.665,-6.4782,0
-11.761,-6.1939,0
-11.853,-5.9082,0
-11.941,-5.6213,0
-12.024,-5.333,0
-12.103,-5.0436,0
-12.177,-4.7529,0
-12.247,-4.4612,0
-12.313,-4.1685,0
-12.374,-3.8747,0
-12.43,-3.5801,0
-12.482,-3.2847,0
-12.53,-2.9885,0
-12.573,-2.6916,0
-12.612,-2.3941,0
-12.646,-2.0961,0
-12.675,-1.7975,0
-12.7,-1.4986,0
-12.721,-1.1993,0
-12.737,-0.89969,0
-12.748,-0.59991,0
-12.755,-0.29999,0
-12.757,7.8564e-16,0
-12.755,0.29999,0
-12.748,0.59991,0
-12.737,0.89969,0
-12.721,1.1993,0
-12.7,1.4986,0
-12.675,1.7975,0
-12.646,2.0961,0
-12.612,2.3941,0
-12.573,2.6916,0
-12.53,2.9885,0
-12.482,3.2847,0
-12.43,3.5801,0
-12.374,3.8747,0
-12.313,4.1685,0
-12.247,4.4612,0
-12.177,4.7529,0
-12.103,5.0436,0
-12.024,5.333,0
-11.941,5.6213,0
-11.853,5.9082,0
-11.761,6.1939,0
-11.665,6.4782,0
-11.562,6.7617,0
-11.451,7.0458,0
-11.315,7.3334,0
-11.12,7.6511,0
-10.785,7.7272,0
-10.512,7.7573,0
-10.253,7.7661,0
-10,7.7683,0
-9.748,7.7674,0
-9.4924,7.762,0
-9.2273,7.744,0
-8.9265,7.7021,0
-8.6463,7.5458,0
-8.403,7.3877,0
-8.1725,7.2261,0
-7.946,7.0639,0
-7.7206,6.9014,0
-7.4955,6.739,0
-7.2705,6.5765,0
-7.0455,6.414,0
-6.8205,6.2515,0
-6.5955,6.089,0
-6.3705,5.9265,0
-6.1455,5.764,0
-5.9205,5.6015,0
-5.6955,5.439,0
-5.4705,5.2765,0
-5.2455,5.114,0
-5.0205,4.9515,0
-4.7955,4.789,0
-4.5705,4.6265,0
-4.3455,4.464,0
-4.1205,4.3015,0
-3.8955,4.139,0
-3.6705,3.9765,0
-3.4455,3.814,0
-3.2205,3.6515,0
-2.9955,3.489,0
-2.7705,3.3265,0
-2.5455,3.164,0
-2.3205,3.0015,0
-2.0955,2.839,0
-1.8705,2.6765,0
-1.6455,2.514,0
-1.4205,2.3515,0
-1.1955,2.1889,0
-0.97045,2.0263,0
-0.74536,1.8633,0
-0.52004,1.6987,0
-0.2939,1.5284,0
-0.067272,1.3398,0
0.17394,1.0983,0
0.21098,1.1192,0
0.28496,0.79299,0
0.31831,0.51682,0
0.32972,0.25535,0
0.33249,-1.301e-17,0
0.32972,-0.25535,0
0.31831,-0.51682,0
0.28496,-0.79299,0
0.21098,-1.1192,0
-0.028363,-1.3748,0
-0.25535,-1.5729,0
-0.48205,-1.7478,0