TITLE = "vncfd field: iter= 0, time= 0.000000"
VARIABLES = "X", "Y", "rho", "u", "v", "p", "Mach", "T"
ZONE T="1", I=61, J=41, DATAPACKING=BLOCK, VARLOCATION=([3,4,5,6,7,8]=CELLCENTERED)
1.000000 0.994522 0.978148 0.951057 0.913545 0.866025 0.809017 0.743145 0.669131 0.587785 0.500000 0.406737 0.309017 0.207912 0.104528 0.000000 -0.104528 -0.207912 -0.309017 -0.406737 -0.500000 -0.587785 -0.669131 -0.743145 -0.809017 -0.866025 -0.913545 -0.951057 -0.978148 -0.994522 -1.000000 -0.994522 -0.978148 -0.951057 -0.913545 -0.866025 -0.809017 -0.743145 -0.669131 -0.587785 -0.500000 -0.406737 -0.309017 -0.207912 -0.104528 -0.000000 0.104528 0.207912 0.309017 0.406737 0.500000 0.587785 0.669131 0.743145 0.809017 0.866025 0.913545 0.951057 0.978148 0.994522 1.000000 1.010000 1.004467 0.987929 0.960567 0.922681 0.874686 0.817107 0.750576 0.675822 0.593663 0.505000 0.410804 0.312107 0.209991 0.105574 0.000000 -0.105574 -0.209991 -0.312107 -0.410804 -0.505000 -0.593663 -0.675822 -0.750576 -0.817107 -0.874686 -0.922681 -0.960567 -0.987929 -1.004467 -1.010000 -1.004467 -0.987929 -0.960567 -0.922681 -0.874686 -0.817107 -0.750576 -0.675822 -0.593663 -0.505000 -0.410804 -0.312107 -0.209991 -0.105574 -0.000000 0.105574 0.209991 0.312107 0.410804 0.505000 0.593663 0.675822 0.750576 0.817107 0.874686 0.922681 0.960567 0.987929 1.004467 1.010000 1.022000 1.016401 0.999667 0.971980 0.933643 0.885078 0.826815 0.759494 0.683851 0.600717 0.511000 0.415685 0.315815 0.212486 0.106828 0.000000 -0.106828 -0.212486 -0.315815 -0.415685 -0.511000 -0.600717 -0.683851 -0.759494 -0.826815 -0.885078 -0.933643 -0.971980 -0.999667 -1.016401 -1.022000 -1.016401 -0.999667 -0.971980 -0.933643 -0.885078 -0.826815 -0.759494 -0.683851 -0.600717 -0.511000 -0.415685 -0.315815 -0.212486 -0.106828 -0.000000 0.106828 0.212486 0.315815 0.415685 0.511000 0.600717 0.683851 0.759494 0.826815 0.885078 0.933643 0.971980 0.999667 1.016401 1.022000 1.036400 1.030722 1.013752 0.985675 0.946799 0.897549 0.838465 0.770195 0.693487 0.609181 0.518200 0.421542 0.320265 0.215480 0.108333 0.000000 -0.108333 -0.215480 -0.320265 -0.421542 -0.518200 -0.609181 -0.693487 -0.770195 -0.838465 -0.897549 -0.946799 -0.985675 -1.013752 -1.030722 -1.036400 -1.030722 -1.013752 -0.985675 -0.946799 -0.897549 -0.838465 -0.770195 -0.693487 -0.609181 -0.518200 -0.421542 -0.320265 -0.215480 -0.108333 -0.000000 0.108333 0.215480 0.320265 0.421542 0.518200 0.609181 0.693487 0.770195 0.838465 0.897549 0.946799 0.985675 1.013752 1.030722 1.036400 1.053680 1.047908 1.030655 1.002109 0.962585 0.912514 0.852445 0.783037 0.705050 0.619338 0.526840 0.428570 0.325605 0.219072 0.110140 0.000000 -0.110140 -0.219072 -0.325605 -0.428570 -0.526840 -0.619338 -0.705050 -0.783037 -0.852445 -0.912514 -0.962585 -1.002109 -1.030655 -1.047908 -1.053680 -1.047908 -1.030655 -1.002109 -0.962585 -0.912514 -0.852445 -0.783037 -0.705050 -0.619338 -0.526840 -0.428570 -0.325605 -0.219072 -0.110140 -0.000000 0.110140 0.219072 0.325605 0.428570 0.526840 0.619338 0.705050 0.783037 0.852445 0.912514 0.962585 1.002109 1.030655 1.047908 1.053680 1.074416 1.068530 1.050937 1.021830 0.981528 0.930472 0.869221 0.798447 0.718925 0.631526 0.537208 0.437004 0.332013 0.223384 0.112307 0.000000 -0.112307 -0.223384 -0.332013 -0.437004 -0.537208 -0.631526 -0.718925 -0.798447 -0.869221 -0.930472 -0.981528 -1.021830 -1.050937 -1.068530 -1.074416 -1.068530 -1.050937 -1.021830 -0.981528 -0.930472 -0.869221 -0.798447 -0.718925 -0.631526 -0.537208 -0.437004 -0.332013 -0.223384 -0.112307 -0.000000 0.112307 0.223384 0.332013 0.437004 0.537208 0.631526 0.718925 0.798447 0.869221 0.930472 0.981528 1.021830 1.050937 1.068530 1.074416 1.099299 1.093277 1.075277 1.045496 1.004260 0.952021 0.889352 0.816939 0.735575 0.646152 0.549650 0.447125 0.339702 0.228557 0.114908 0.000000 -0.114908 -0.228557 -0.339702 -0.447125 -0.549650 -0.646152 -0.735575 -0.816939 -0.889352 -0.952021 -1.004260 -1.045496 -1.075277 -1.093277 -1.099299 -1.093277 -1.075277 -1.045496 -1.004260 -0.952021 -0.889352 -0.816939 -0.735575 -0.646152 -0.549650 -0.447125 -0.339702 -0.228557 -0.114908 -0.000000 0.114908 0.228557 0.339702 0.447125 0.549650 0.646152 0.735575 0.816939 0.889352 0.952021 1.004260 1.045496 1.075277 1.093277 1.099299 1.129159 1.122973 1.104484 1.073894 1.031538 0.977880 0.913509 0.839129 0.755555 0.663703 0.564580 0.459270 0.348929 0.234765 0.118029 0.000000 -0.118029 -0.234765 -0.348929 -0.459270 -0.564580 -0.663703 -0.755555 -0.839129 -0.913509 -0.977880 -1.031538 -1.073894 -1.104484 -1.122973 -1.129159 -1.122973 -1.104484 -1.073894 -1.031538 -0.977880 -0.913509 -0.839129 -0.755555 -0.663703 -0.564580 -0.459270 -0.348929 -0.234765 -0.118029 -0.000000 0.118029 0.234765 0.348929 0.459270 0.564580 0.663703 0.755555 0.839129 0.913509 0.977880 1.031538 1.073894 1.104484 1.122973 1.129159 1.164991 1.158609 1.139533 1.107972 1.064272 1.008912 0.942497 0.865757 0.779531 0.684764 0.582495 0.473844 0.360002 0.242215 0.121775 0.000000 -0.121775 -0.242215 -0.360002 -0.473844 -0.582495 -0.684764 -0.779531 -0.865757 -0.942497 -1.008912 -1.064272 -1.107972 -1.139533 -1.158609 -1.164991 -1.158609 -1.139533 -1.107972 -1.064272 -1.008912 -0.942497 -0.865757 -0.779531 -0.684764 -0.582495 -0.473844 -0.360002 -0.242215 -0.121775 -0.000000 0.121775 0.242215 0.360002 0.473844 0.582495 0.684764 0.779531 0.865757 0.942497 1.008912 1.064272 1.107972 1.139533 1.158609 1.164991 1.207989 1.201372 1.181592 1.148866 1.103553 1.046149 0.977284 0.897711 0.808302 0.710038 0.603995 0.491333 0.373289 0.251155 0.126269 0.000000 -0.126269 -0.251155 -0.373289 -0.491333 -0.603995 -0.710038 -0.808302 -0.897711 -0.977284 -1.046149 -1.103553 -1.148866 -1.181592 -1.201372 -1.207989 -1.201372 -1.181592 -1.148866 -1.103553 -1.046149 -0.977284 -0.897711 -0.808302 -0.710038 -0.603995 -0.491333 -0.373289 -0.251155 -0.126269 -0.000000 0.126269 0.251155 0.373289 0.491333 0.603995 0.710038 0.808302 0.897711 0.977284 1.046149 1.103553 1.148866 1.181592 1.201372 1.207989 1.259587 1.252687 1.232062 1.197938 1.150690 1.090834 1.019027 0.936055 0.842828 0.740367 0.629793 0.512320 0.389234 0.261883 0.131663 0.000000 -0.131663 -0.261883 -0.389234 -0.512320 -0.629793 -0.740367 -0.842828 -0.936055 -1.019027 -1.090834 -1.150690 -1.197938 -1.232062 -1.252687 -1.259587 -1.252687 -1.232062 -1.197938 -1.150690 -1.090834 -1.019027 -0.936055 -0.842828 -0.740367 -0.629793 -0.512320 -0.389234 -0.261883 -0.131663 -0.000000 0.131663 0.261883 0.389234 0.512320 0.629793 0.740367 0.842828 0.936055 1.019027 1.090834 1.150690 1.197938 1.232062 1.252687 1.259587 1.321504 1.314265 1.292626 1.256825 1.207254 1.144456 1.069119 0.982069 0.884259 0.776761 0.660752 0.537504 0.408367 0.274756 0.138135 0.000000 -0.138135 -0.274756 -0.408367 -0.537504 -0.660752 -0.776761 -0.884259 -0.982069 -1.069119 -1.144456 -1.207254 -1.256825 -1.292626 -1.314265 -1.321504 -1.314265 -1.292626 -1.256825 -1.207254 -1.144456 -1.069119 -0.982069 -0.884259 -0.776761 -0.660752 -0.537504 -0.408367 -0.274756 -0.138135 -0.000000 0.138135 0.274756 0.408367 0.537504 0.660752 0.776761 0.884259 0.982069 1.069119 1.144456 1.207254 1.256825 1.292626 1.314265 1.321504 1.395805 1.388159 1.365303 1.327489 1.275131 1.208803 1.129230 1.037285 0.933976 0.820434 0.697903 0.567725 0.431327 0.290204 0.145901 0.000000 -0.145901 -0.290204 -0.431327 -0.567725 -0.697903 -0.820434 -0.933976 -1.037285 -1.129230 -1.208803 -1.275131 -1.327489 -1.365303 -1.388159 -1.395805 -1.388159 -1.365303 -1.327489 -1.275131 -1.208803 -1.129230 -1.037285 -0.933976 -0.820434 -0.697903 -0.567725 -0.431327 -0.290204 -0.145901 -0.000000 0.145901 0.290204 0.431327 0.567725 0.697903 0.820434 0.933976 1.037285 1.129230 1.208803 1.275131 1.327489 1.365303 1.388159 1.395805 1.484966 1.476831 1.452516 1.412287 1.356584 1.286018 1.201363 1.103545 0.993636 0.872841 0.742483 0.603990 0.458880 0.308742 0.155221 0.000000 -0.155221 -0.308742 -0.458880 -0.603990 -0.742483 -0.872841 -0.993636 -1.103545 -1.201363 -1.286018 -1.356584 -1.412287 -1.452516 -1.476831 -1.484966 -1.476831 -1.452516 -1.412287 -1.356584 -1.286018 -1.201363 -1.103545 -0.993636 -0.872841 -0.742483 -0.603990 -0.458880 -0.308742 -0.155221 -0.000000 0.155221 0.308742 0.458880 0.603990 0.742483 0.872841 0.993636 1.103545 1.201363 1.286018 1.356584 1.412287 1.452516 1.476831 1.484966 1.591959 1.583238 1.557171 1.514043 1.454327 1.378677 1.287922 1.183056 1.065229 0.935730 0.795980 0.647508 0.491942 0.330987 0.166405 0.000000 -0.166405 -0.330987 -0.491942 -0.647508 -0.795980 -0.935730 -1.065229 -1.183056 -1.287922 -1.378677 -1.454327 -1.514043 -1.557171 -1.583238 -1.591959 -1.583238 -1.557171 -1.514043 -1.454327 -1.378677 -1.287922 -1.183056 -1.065229 -0.935730 -0.795980 -0.647508 -0.491942 -0.330987 -0.166405 -0.000000 0.166405 0.330987 0.491942 0.647508 0.795980 0.935730 1.065229 1.183056 1.287922 1.378677 1.454327 1.514043 1.557171 1.583238 1.591959 1.720351 1.710927 1.682757 1.636151 1.571619 1.489868 1.391793 1.278470 1.151140 1.011197 0.860176 0.699730 0.531618 0.357681 0.179826 0.000000 -0.179826 -0.357681 -0.531618 -0.699730 -0.860176 -1.011197 -1.151140 -1.278470 -1.391793 -1.489868 -1.571619 -1.636151 -1.682757 -1.710927 -1.720351 -1.710927 -1.682757 -1.636151 -1.571619 -1.489868 -1.391793 -1.278470 -1.151140 -1.011197 -0.860176 -0.699730 -0.531618 -0.357681 -0.179826 -0.000000 0.179826 0.357681 0.531618 0.699730 0.860176 1.011197 1.151140 1.278470 1.391793 1.489868 1.571619 1.636151 1.682757 1.710927 1.720351 1.874421 1.864153 1.833461 1.782681 1.712369 1.623296 1.516439 1.392966 1.254233 1.101757 0.937211 0.762396 0.579228 0.389714 0.195930 0.000000 -0.195930 -0.389714 -0.579228 -0.762396 -0.937211 -1.101757 -1.254233 -1.392966 -1.516439 -1.623296 -1.712369 -1.782681 -1.833461 -1.864153 -1.874421 -1.864153 -1.833461 -1.782681 -1.712369 -1.623296 -1.516439 -1.392966 -1.254233 -1.101757 -0.937211 -0.762396 -0.579228 -0.389714 -0.195930 -0.000000 0.195930 0.389714 0.579228 0.762396 0.937211 1.101757 1.254233 1.392966 1.516439 1.623296 1.712369 1.782681 1.833461 1.864153 1.874421 2.059306 2.048024 2.014305 1.958516 1.881269 1.783411 1.666013 1.530362 1.377944 1.210429 1.029653 0.837595 0.636360 0.428154 0.215256 0.000000 -0.215256 -0.428154 -0.636360 -0.837595 -1.029653 -1.210429 -1.377944 -1.530362 -1.666013 -1.783411 -1.881269 -1.958516 -2.014305 -2.048024 -2.059306 -2.048024 -2.014305 -1.958516 -1.881269 -1.783411 -1.666013 -1.530362 -1.377944 -1.210429 -1.029653 -0.837595 -0.636360 -0.428154 -0.215256 -0.000000 0.215256 0.428154 0.636360 0.837595 1.029653 1.210429 1.377944 1.530362 1.666013 1.783411 1.881269 1.958516 2.014305 2.048024 2.059306 2.281167 2.268670 2.231318 2.169518 2.083949 1.975548 1.845503 1.695237 1.526398 1.340836 1.140583 0.927834 0.704919 0.474281 0.238447 0.000000 -0.238447 -0.474281 -0.704919 -0.927834 -1.140583 -1.340836 -1.526398 -1.695237 -1.845503 -1.975548 -2.083949 -2.169518 -2.231318 -2.268670 -2.281167 -2.268670 -2.231318 -2.169518 -2.083949 -1.975548 -1.845503 -1.695237 -1.526398 -1.340836 -1.140583 -0.927834 -0.704919 -0.474281 -0.238447 -0.000000 0.238447 0.474281 0.704919 0.927834 1.140583 1.340836 1.526398 1.695237 1.845503 1.975548 2.083949 2.169518 2.231318 2.268670 2.281167 2.547400 2.533445 2.491733 2.422721 2.327166 2.206113 2.060890 1.893087 1.704543 1.497324 1.273700 1.036121 0.787190 0.529634 0.266276 0.000000 -0.266276 -0.529634 -0.787190 -1.036121 -1.273700 -1.497324 -1.704543 -1.893087 -2.060890 -2.206113 -2.327166 -2.422721 -2.491733 -2.533445 -2.547400 -2.533445 -2.491733 -2.422721 -2.327166 -2.206113 -2.060890 -1.893087 -1.704543 -1.497324 -1.273700 -1.036121 -0.787190 -0.529634 -0.266276 -0.000000 0.266276 0.529634 0.787190 1.036121 1.273700 1.497324 1.704543 1.893087 2.060890 2.206113 2.327166 2.422721 2.491733 2.533445 2.547400 2.866880 2.851175 2.804232 2.726565 2.619025 2.482791 2.319355 2.130507 1.918317 1.685110 1.433440 1.166065 0.885915 0.596058 0.299671 0.000000 -0.299671 -0.596058 -0.885915 -1.166065 -1.433440 -1.685110 -1.918317 -2.130507 -2.319355 -2.482791 -2.619025 -2.726565 -2.804232 -2.851175 -2.866880 -2.851175 -2.804232 -2.726565 -2.619025 -2.482791 -2.319355 -2.130507 -1.918317 -1.685110 -1.433440 -1.166065 -0.885915 -0.596058 -0.299671 -0.000000 0.299671 0.596058 0.885915 1.166065 1.433440 1.685110 1.918317 2.130507 2.319355 2.482791 2.619025 2.726565 2.804232 2.851175 2.866880 3.250256 3.232451 3.179230 3.091177 2.969257 2.814804 2.629512 2.415411 2.174846 1.910453 1.625128 1.321998 1.004384 0.675766 0.339744 0.000000 -0.339744 -0.675766 -1.004384 -1.321998 -1.625128 -1.910453 -2.174846 -2.415411 -2.629512 -2.814804 -2.969257 -3.091177 -3.179230 -3.232451 -3.250256 -3.232451 -3.179230 -3.091177 -2.969257 -2.814804 -2.629512 -2.415411 -2.174846 -1.910453 -1.625128 -1.321998 -1.004384 -0.675766 -0.339744 -0.000000 0.339744 0.675766 1.004384 1.321998 1.625128 1.910453 2.174846 2.415411 2.629512 2.814804 2.969257 3.091177 3.179230 3.232451 3.250256 3.710307 3.689982 3.629228 3.528712 3.389534 3.213220 3.001702 2.757296 2.482680 2.180864 1.855154 1.509118 1.146548 0.771416 0.387833 0.000000 -0.387833 -0.771416 -1.146548 -1.509118 -1.855154 -2.180864 -2.482680 -2.757296 -3.001702 -3.213220 -3.389534 -3.528712 -3.629228 -3.689982 -3.710307 -3.689982 -3.629228 -3.528712 -3.389534 -3.213220 -3.001702 -2.757296 -2.482680 -2.180864 -1.855154 -1.509118 -1.146548 -0.771416 -0.387833 -0.000000 0.387833 0.771416 1.146548 1.509118 1.855154 2.180864 2.482680 2.757296 3.001702 3.213220 3.389534 3.528712 3.629228 3.689982 3.710307 4.262369 4.239019 4.169226 4.053753 3.893868 3.691320 3.448329 3.167557 2.852081 2.505357 2.131184 1.733662 1.317144 0.886196 0.445539 0.000000 -0.445539 -0.886196 -1.317144 -1.733662 -2.131184 -2.505357 -2.852081 -3.167557 -3.448329 -3.691320 -3.893868 -4.053753 -4.169226 -4.239019 -4.262369 -4.239019 -4.169226 -4.053753 -3.893868 -3.691320 -3.448329 -3.167557 -2.852081 -2.505357 -2.131184 -1.733662 -1.317144 -0.886196 -0.445539 -0.000000 0.445539 0.886196 1.317144 1.733662 2.131184 2.505357 2.852081 3.167557 3.448329 3.691320 3.893868 4.053753 4.169226 4.239019 4.262369 4.924842 4.897864 4.817223 4.683803 4.499067 4.265039 3.984281 3.659871 3.295363 2.894750 2.462421 2.003114 1.521860 1.023932 0.514786 0.000000 -0.514786 -1.023932 -1.521860 -2.003114 -2.462421 -2.894750 -3.295363 -3.659871 -3.984281 -4.265039 -4.499067 -4.683803 -4.817223 -4.897864 -4.924842 -4.897864 -4.817223 -4.683803 -4.499067 -4.265039 -3.984281 -3.659871 -3.295363 -2.894750 -2.462421 -2.003114 -1.521860 -1.023932 -0.514786 -0.000000 0.514786 1.023932 1.521860 2.003114 2.462421 2.894750 3.295363 3.659871 3.984281 4.265039 4.499067 4.683803 4.817223 4.897864 4.924842 5.719811 5.688477 5.594819 5.439863 5.225307 4.953501 4.627424 4.250648 3.827300 3.362020 2.859905 2.326457 1.767519 1.189216 0.597883 0.000000 -0.597883 -1.189216 -1.767519 -2.326457 -2.859905 -3.362020 -3.827300 -4.250648 -4.627424 -4.953501 -5.225307 -5.439863 -5.594819 -5.688477 -5.719811 -5.688477 -5.594819 -5.439863 -5.225307 -4.953501 -4.627424 -4.250648 -3.827300 -3.362020 -2.859905 -2.326457 -1.767519 -1.189216 -0.597883 -0.000000 0.597883 1.189216 1.767519 2.326457 2.859905 3.362020 3.827300 4.250648 4.627424 4.953501 5.225307 5.439863 5.594819 5.688477 5.719811 6.673773 6.637213 6.527935 6.347135 6.096795 5.779657 5.399196 4.959580 4.465626 3.922745 3.336886 2.714468 2.062309 1.387555 0.697599 0.000000 -0.697599 -1.387555 -2.062309 -2.714468 -3.336886 -3.922745 -4.465626 -4.959580 -5.399196 -5.779657 -6.096795 -6.347135 -6.527935 -6.637213 -6.673773 -6.637213 -6.527935 -6.347135 -6.096795 -5.779657 -5.399196 -4.959580 -4.465626 -3.922745 -3.336886 -2.714468 -2.062309 -1.387555 -0.697599 -0.000000 0.697599 1.387555 2.062309 2.714468 3.336886 3.922745 4.465626 4.959580 5.399196 5.779657 6.096795 6.347135 6.527935 6.637213 6.673773 7.818528 7.775697 7.647674 7.435862 7.142580 6.771044 6.325322 5.810298 5.231616 4.595615 3.909264 3.180082 2.416058 1.625563 0.817259 0.000000 -0.817259 -1.625563 -2.416058 -3.180082 -3.909264 -4.595615 -5.231616 -5.810298 -6.325322 -6.771044 -7.142580 -7.435862 -7.647674 -7.775697 -7.818528 -7.775697 -7.647674 -7.435862 -7.142580 -6.771044 -6.325322 -5.810298 -5.231616 -4.595615 -3.909264 -3.180082 -2.416058 -1.625563 -0.817259 -0.000000 0.817259 1.625563 2.416058 3.180082 3.909264 4.595615 5.231616 5.810298 6.325322 6.771044 7.142580 7.435862 7.647674 7.775697 7.818528 9.192233 9.141877 8.991361 8.742333 8.397523 7.960707 7.436673 6.831160 6.150805 5.403059 4.596117 3.738818 2.840556 1.911173 0.960850 0.000000 -0.960850 -1.911173 -2.840556 -3.738818 -4.596117 -5.403059 -6.150805 -6.831160 -7.436673 -7.960707 -8.397523 -8.742333 -8.991361 -9.141877 -9.192233 -9.141877 -8.991361 -8.742333 -8.397523 -7.960707 -7.436673 -6.831160 -6.150805 -5.403059 -4.596117 -3.738818 -2.840556 -1.911173 -0.960850 -0.000000 0.960850 1.911173 2.840556 3.738818 4.596117 5.403059 6.150805 6.831160 7.436673 7.960707 8.397523 8.742333 8.991361 9.141877 9.192233 10.840680 10.781293 10.603785 10.310099 9.903454 9.388304 8.770294 8.056195 7.253831 6.371992 5.420340 4.409302 3.349954 2.253904 1.133160 0.000000 -1.133160 -2.253904 -3.349954 -4.409302 -5.420340 -6.371992 -7.253831 -8.056195 -8.770294 -9.388304 -9.903454 -10.310099 -10.603785 -10.781293 -10.840680 -10.781293 -10.603785 -10.310099 -9.903454 -9.388304 -8.770294 -8.056195 -7.253831 -6.371992 -5.420340 -4.409302 -3.349954 -2.253904 -1.133160 -0.000000 1.133160 2.253904 3.349954 4.409302 5.420340 6.371992 7.253831 8.056195 8.770294 9.388304 9.903454 10.310099 10.603785 10.781293 10.840680 12.818816 12.748593 12.538694 12.191418 11.710571 11.101420 10.370640 9.526237 8.577462 7.534711 6.409408 5.213882 3.961232 2.665182 1.339931 0.000000 -1.339931 -2.665182 -3.961232 -5.213882 -6.409408 -7.534711 -8.577462 -9.526237 -10.370640 -11.101420 -11.710571 -12.191418 -12.538694 -12.748593 -12.818816 -12.748593 -12.538694 -12.191418 -11.710571 -11.101420 -10.370640 -9.526237 -8.577462 -7.534711 -6.409408 -5.213882 -3.961232 -2.665182 -1.339931 -0.000000 1.339931 2.665182 3.961232 5.213882 6.409408 7.534711 8.577462 9.526237 10.370640 11.101420 11.710571 12.191418 12.538694 12.748593 12.818816 15.192579 15.109352 14.860585 14.449001 13.879111 13.157159 12.291054 11.290286 10.165819 8.929974 7.596289 6.179379 4.694765 3.158715 1.588057 0.000000 -1.588057 -3.158715 -4.694765 -6.179379 -7.596289 -8.929974 -10.165819 -11.290286 -12.291054 -13.157159 -13.879111 -14.449001 -14.860585 -15.109352 -15.192579 -15.109352 -14.860585 -14.449001 -13.879111 -13.157159 -12.291054 -11.290286 -10.165819 -8.929974 -7.596289 -6.179379 -4.694765 -3.158715 -1.588057 -0.000000 1.588057 3.158715 4.694765 6.179379 7.596289 8.929974 10.165819 11.290286 12.291054 13.157159 13.879111 14.449001 14.860585 15.109352 15.192579 18.041095 17.942264 17.646853 17.158101 16.481360 15.624046 14.595552 13.407146 12.071849 10.604289 9.020547 7.337974 5.575005 3.750954 1.885808 0.000000 -1.885808 -3.750954 -5.575005 -7.337974 -9.020547 -10.604289 -12.071849 -13.407146 -14.595552 -15.624046 -16.481360 -17.158101 -17.646853 -17.942264 -18.041095 -17.942264 -17.646853 -17.158101 -16.481360 -15.624046 -14.595552 -13.407146 -12.071849 -10.604289 -9.020547 -7.337974 -5.575005 -3.750954 -1.885808 -0.000000 1.885808 3.750954 5.575005 7.337974 9.020547 10.604289 12.071849 13.407146 14.595552 15.624046 16.481360 17.158101 17.646853 17.942264 18.041095 21.459314 21.341757 20.990376 20.409020 19.604058 18.584311 17.360949 15.947378 14.359083 12.613468 10.729657 8.728289 6.631293 4.461642 2.243109 0.000000 -2.243109 -4.461642 -6.631293 -8.728289 -10.729657 -12.613468 -14.359083 -15.947378 -17.360949 -18.584311 -19.604058 -20.409020 -20.990376 -21.341757 -21.459314 -21.341757 -20.990376 -20.409020 -19.604058 -18.584311 -17.360949 -15.947378 -14.359083 -12.613468 -10.729657 -8.728289 -6.631293 -4.461642 -2.243109 -0.000000 2.243109 4.461642 6.631293 8.728289 10.729657 12.613468 14.359083 15.947378 17.360949 18.584311 19.604058 20.409020 20.990376 21.341757 21.459314 25.561176 25.421149 25.002603 24.310123 23.351296 22.136628 20.679426 18.995656 17.103765 15.024482 12.780588 10.396667 7.898838 5.314467 2.671870 0.000000 -2.671870 -5.314467 -7.898838 -10.396667 -12.780588 -15.024482 -17.103765 -18.995656 -20.679426 -22.136628 -23.351296 -24.310123 -25.002603 -25.421149 -25.561176 -25.421149 -25.002603 -24.310123 -23.351296 -22.136628 -20.679426 -18.995656 -17.103765 -15.024482 -12.780588 -10.396667 -7.898838 -5.314467 -2.671870 -0.000000 2.671870 5.314467 7.898838 10.396667 12.780588 15.024482 17.103765 18.995656 20.679426 22.136628 23.351296 24.310123 25.002603 25.421149 25.561176 30.483411 30.316420 29.817276 28.991447 27.847982 26.399409 24.661598 22.653589 20.397384 17.917700 15.241706 12.398720 9.419892 6.337858 3.186384 0.000000 -3.186384 -6.337858 -9.419892 -12.398720 -15.241706 -17.917700 -20.397384 -22.653589 -24.661598 -26.399409 -27.847982 -28.991447 -29.817276 -30.316420 -30.483411 -30.316420 -29.817276 -28.991447 -27.847982 -26.399409 -24.661598 -22.653589 -20.397384 -17.917700 -15.241706 -12.398720 -9.419892 -6.337858 -3.186384 -0.000000 3.186384 6.337858 9.419892 12.398720 15.241706 17.917700 20.397384 22.653589 24.661598 26.399409 27.847982 28.991447 29.817276 30.316420 30.483411 36.390094 36.190745 35.594883 34.609036 33.244005 31.514746 29.440204 27.043110 24.349725 21.389560 18.195047 14.801185 11.245157 7.565926 3.803801 0.000000 -3.803801 -7.565926 -11.245157 -14.801185 -18.195047 -21.389560 -24.349725 -27.043110 -29.440204 -31.514746 -33.244005 -34.609036 -35.594883 -36.190745 -36.390094 -36.190745 -35.594883 -34.609036 -33.244005 -31.514746 -29.440204 -27.043110 -24.349725 -21.389560 -18.195047 -14.801185 -11.245157 -7.565926 -3.803801 -0.000000 3.803801 7.565926 11.245157 14.801185 18.195047 21.389560 24.349725 27.043110 29.440204 31.514746 33.244005 34.609036 35.594883 36.190745 36.390094 43.478112 43.239935 42.528011 41.350142 39.719232 37.653150 35.174532 32.310534 29.092536 25.555793 21.739056 17.684142 13.435476 9.039608 4.544700 0.000000 -4.544700 -9.039608 -13.435476 -17.684142 -21.739056 -25.555793 -29.092536 -32.310534 -35.174532 -37.653150 -39.719232 -41.350142 -42.528011 -43.239935 -43.478112 -43.239935 -42.528011 -41.350142 -39.719232 -37.653150 -35.174532 -32.310534 -29.092536 -25.555793 -21.739056 -17.684142 -13.435476 -9.039608 -4.544700 -0.000000 4.544700 9.039608 13.435476 17.684142 21.739056 25.555793 29.092536 32.310534 35.174532 37.653150 39.719232 41.350142 42.528011 43.239935 43.478112 51.983735 51.698963 50.847766 49.439470 47.489505 45.019235 42.055725 38.631444 34.783908 30.555273 25.991867 21.143690 16.063858 10.808026 5.433780 0.000000 -5.433780 -10.808026 -16.063858 -21.143690 -25.991867 -30.555273 -34.783908 -38.631444 -42.055725 -45.019235 -47.489505 -49.439470 -50.847766 -51.698963 -51.983735 -51.698963 -50.847766 -49.439470 -47.489505 -45.019235 -42.055725 -38.631444 -34.783908 -30.555273 -25.991867 -21.143690 -16.063858 -10.808026 -5.433780 -0.000000 5.433780 10.808026 16.063858 21.143690 25.991867 30.555273 34.783908 38.631444 42.055725 45.019235 47.489505 49.439470 50.847766 51.698963 51.983735 62.190482 61.849796 60.831471 59.146663 56.813832 53.858537 50.313157 46.216535 41.613555 36.554648 31.095241 25.295148 19.217916 12.930128 6.500676 0.000000 -6.500676 -12.930128 -19.217916 -25.295148 -31.095241 -36.554648 -41.613555 -46.216535 -50.313157 -53.858537 -56.813832 -59.146663 -60.831471 -61.849796 -62.190482 -61.849796 -60.831471 -59.146663 -56.813832 -53.858537 -50.313157 -46.216535 -41.613555 -36.554648 -31.095241 -25.295148 -19.217916 -12.930128 -6.500676 -0.000000 6.500676 12.930128 19.217916 25.295148 31.095241 36.554648 41.613555 46.216535 50.313157 53.858537 56.813832 59.146663 60.831471 61.849796 62.190482 74.438578 74.030796 72.811917 70.795295 68.003025 64.465700 60.222075 55.318644 49.809131 43.753899 37.219289 30.276897 23.002786 15.476651 7.780950 0.000000 -7.780950 -15.476651 -23.002786 -30.276897 -37.219289 -43.753899 -49.809131 -55.318644 -60.222075 -64.465700 -68.003025 -70.795295 -72.811917 -74.030796 -74.438578 -74.030796 -72.811917 -70.795295 -68.003025 -64.465700 -60.222075 -55.318644 -49.809131 -43.753899 -37.219289 -30.276897 -23.002786 -15.476651 -7.780950 -0.000000 7.780950 15.476651 23.002786 30.276897 37.219289 43.753899 49.809131 55.318644 60.222075 64.465700 68.003025 70.795295 72.811917 74.030796 74.438578 