TITLE = "vncfd field: iter= 15500, time= 0.030459"
VARIABLES = "X", "Y", "rho", "u", "v", "p", "Mach", "T"
ZONE T="1", I=103, J=47, DATAPACKING=BLOCK, VARLOCATION=([3,4,5,6,7,8]=CELLCENTERED)
1.000000 0.990100 0.979140 0.967040 0.953720 0.939100 0.923090 0.905640 0.886670 0.866140 0.844030 0.820310 0.795000 0.768150 0.739820 0.710100 0.679140 0.647090 0.614130 0.580480 0.546380 0.512060 0.477780 0.443780 0.410310 0.377600 0.345850 0.315250 0.285940 0.258060 0.231700 0.206920 0.183760 0.162220 0.142300 0.123960 0.107160 0.091832 0.077911 0.065325 0.054000 0.043862 0.034843 0.026882 0.019931 0.013960 0.008972 0.005009 0.002158 0.000504 0.000000 0.000504 0.002158 0.005009 0.008972 0.013960 0.019931 0.026882 0.034843 0.043862 0.054000 0.065325 0.077911 0.091832 0.107160 0.123960 0.142300 0.162220 0.183760 0.206920 0.231700 0.258060 0.285940 0.315250 0.345850 0.377600 0.410310 0.443780 0.477780 0.512060 0.546380 0.580480 0.614130 0.647090 0.679140 0.710100 0.739820 0.768150 0.795000 0.820310 0.844030 0.866140 0.886670 0.905640 0.923090 0.939100 0.953720 0.967040 0.979140 0.990100 1.000000 1.000000 1.000000 1.001200 0.990450 0.979400 0.967280 0.953960 0.939330 0.923320 0.905860 0.886890 0.866360 0.844240 0.820510 0.795200 0.768340 0.740000 0.710280 0.679310 0.647250 0.614290 0.580630 0.546520 0.512190 0.477890 0.443880 0.410400 0.377670 0.345900 0.315270 0.285940 0.258040 0.231650 0.206840 0.183640 0.162070 0.142110 0.123730 0.106880 0.091496 0.077517 0.064866 0.053467 0.043245 0.034127 0.026048 0.018957 0.012820 0.007637 0.003459 0.000402 -0.001402 -0.001962 -0.001402 0.000402 0.003459 0.007637 0.012820 0.018957 0.026048 0.034127 0.043245 0.053467 0.064866 0.077517 0.091496 0.106880 0.123730 0.142110 0.162070 0.183640 0.206840 0.231650 0.258040 0.285940 0.315270 0.345900 0.377670 0.410400 0.443880 0.477890 0.512190 0.546520 0.580630 0.614290 0.647250 0.679310 0.710280 0.740000 0.768340 0.795200 0.820510 0.844240 0.866360 0.886890 0.905860 0.923320 0.939330 0.953960 0.967280 0.979400 0.990450 1.001200 1.000800 1.001200 1.003000 0.990970 0.979740 0.967570 0.954230 0.939600 0.923580 0.906120 0.887140 0.866600 0.844470 0.820750 0.795430 0.768560 0.740220 0.710490 0.679510 0.647450 0.614470 0.580810 0.546680 0.512340 0.478030 0.444000 0.410500 0.377750 0.345960 0.315310 0.285950 0.258020 0.231600 0.206750 0.183510 0.161900 0.141890 0.123460 0.106550 0.091103 0.077053 0.064321 0.052829 0.042497 0.033251 0.025020 0.017747 0.011394 0.005966 0.001529 -0.001771 -0.003754 -0.004382 -0.003754 -0.001771 0.001529 0.005966 0.011394 0.017747 0.025020 0.033251 0.042497 0.052829 0.064321 0.077053 0.091103 0.106550 0.123460 0.141890 0.161900 0.183510 0.206750 0.231600 0.258020 0.285950 0.315310 0.345960 0.377750 0.410500 0.444000 0.478030 0.512340 0.546680 0.580810 0.614470 0.647450 0.679510 0.710490 0.740220 0.768560 0.795430 0.820750 0.844470 0.866600 0.887140 0.906120 0.923580 0.939600 0.954230 0.967570 0.979740 0.990970 1.003000 1.001900 1.003000 1.004700 0.991720 0.980220 0.967930 0.954550 0.939900 0.923880 0.906410 0.887430 0.866880 0.844750 0.821010 0.795690 0.768820 0.740470 0.710730 0.679750 0.647670 0.614690 0.581010 0.546880 0.512520 0.478200 0.444150 0.410630 0.377860 0.346040 0.315360 0.285970 0.258000 0.231540 0.206650 0.183370 0.161710 0.141640 0.123150 0.106170 0.090645 0.076507 0.063674 0.052064 0.041595 0.032185 0.023758 0.016251 0.009629 0.003907 -0.000825 -0.004386 -0.006553 -0.007249 -0.006553 -0.004386 -0.000825 0.003907 0.009629 0.016251 0.023758 0.032185 0.041595 0.052064 0.063674 0.076507 0.090645 0.106170 0.123150 0.141640 0.161710 0.183370 0.206650 0.231540 0.258000 0.285970 0.315360 0.346040 0.377860 0.410630 0.444150 0.478200 0.512520 0.546880 0.581010 0.614690 0.647670 0.679750 0.710730 0.740470 0.768820 0.795690 0.821010 0.844750 0.866880 0.887430 0.906410 0.923880 0.939900 0.954550 0.967930 0.980220 0.991720 1.004700 1.003500 1.004700 1.006500 0.992780 0.980900 0.968390 0.954930 0.940250 0.924220 0.906740 0.887750 0.867200 0.845060 0.821320 0.795990 0.769110 0.740750 0.711010 0.680020 0.647930 0.614940 0.581260 0.547110 0.512730 0.478390 0.444330 0.410780 0.377990 0.346140 0.315430 0.286010 0.258000 0.231490 0.206550 0.183220 0.161490 0.141360 0.122790 0.105730 0.090113 0.075867 0.062909 0.051153 0.040509 0.030887 0.022206 0.014403 0.007450 0.001384 -0.003673 -0.007506 -0.009857 -0.010620 -0.009857 -0.007506 -0.003673 0.001384 0.007450 0.014403 0.022206 0.030887 0.040509 0.051153 0.062909 0.075867 0.090113 0.105730 0.122790 0.141360 0.161490 0.183220 0.206550 0.231490 0.258000 0.286010 0.315430 0.346140 0.377990 0.410780 0.444330 0.478390 0.512730 0.547110 0.581260 0.614940 0.647930 0.680020 0.711010 0.740750 0.769110 0.795990 0.821320 0.845060 0.867200 0.887750 0.906740 0.924220 0.940250 0.954930 0.968390 0.980900 0.992780 1.006500 1.005500 1.006500 1.008400 0.994270 0.981900 0.969030 0.955400 0.940660 0.924600 0.907120 0.888120 0.867570 0.845420 0.821670 0.796330 0.769450 0.741080 0.711330 0.680330 0.648240 0.615240 0.581540 0.547370 0.512990 0.478630 0.444540 0.410970 0.378150 0.346270 0.315520 0.286060 0.258000 0.231440 0.206450 0.183050 0.161250 0.141050 0.122390 0.105230 0.089500 0.075124 0.062012 0.050069 0.039199 0.029302 0.020296 0.012121 0.004771 -0.001687 -0.007096 -0.011208 -0.013741 -0.014568 -0.013741 -0.011208 -0.007096 -0.001687 0.004771 0.012121 0.020296 0.029302 0.039199 0.050069 0.062012 0.075124 0.089500 0.105230 0.122390 0.141050 0.161250 0.183050 0.206450 0.231440 0.258000 0.286060 0.315520 0.346270 0.378150 0.410970 0.444540 0.478630 0.512990 0.547370 0.581540 0.615240 0.648240 0.680330 0.711330 0.741080 0.769450 0.796330 0.821670 0.845420 0.867570 0.888120 0.907120 0.924600 0.940660 0.955400 0.969030 0.981900 0.994270 1.008400 1.007800 1.008400 1.010600 0.996300 0.983320 0.969960 0.956020 0.941140 0.925030 0.907520 0.888520 0.867970 0.845820 0.822070 0.796730 0.769840 0.741460 0.711710 0.680700 0.648590 0.615580 0.581870 0.547690 0.513290 0.478910 0.444800 0.411200 0.378340 0.346430 0.315640 0.286130 0.258020 0.231410 0.206350 0.182880 0.161000 0.140700 0.121940 0.104670 0.088804 0.074267 0.060960 0.048777 0.037610 0.027357 0.017935 0.009306 0.001492 -0.005404 -0.011187 -0.015584 -0.018293 -0.019183 -0.018293 -0.015584 -0.011187 -0.005404 0.001492 0.009306 0.017935 0.027357 0.037610 0.048777 0.060960 0.074267 0.088804 0.104670 0.121940 0.140700 0.161000 0.182880 0.206350 0.231410 0.258020 0.286130 0.315640 0.346430 0.378340 0.411200 0.444800 0.478910 0.513290 0.547690 0.581870 0.615580 0.648590 0.680700 0.711710 0.741460 0.769840 0.796730 0.822070 0.845820 0.867970 0.888520 0.907520 0.925030 0.941140 0.956020 0.969960 0.983320 0.996300 1.010600 1.010500 1.010600 1.013200 0.998970 0.985320 0.971300 0.956900 0.941750 0.925510 0.907960 0.888960 0.868400 0.846260 0.822510 0.797170 0.770270 0.741900 0.712140 0.681120 0.649010 0.615980 0.582260 0.548070 0.513640 0.479240 0.445110 0.411480 0.378590 0.346630 0.315800 0.286230 0.258070 0.231390 0.206260 0.182700 0.160740 0.140340 0.121460 0.104050 0.088024 0.073285 0.059724 0.047222 0.035665 0.024950 0.015013 0.005842 -0.002501 -0.009876 -0.016053 -0.020739 -0.023623 -0.024573 -0.023623 -0.020739 -0.016053 -0.009876 -0.002501 0.005842 0.015013 0.024950 0.035665 0.047222 0.059724 0.073285 0.088024 0.104050 0.121460 0.140340 0.160740 0.182700 0.206260 0.231390 0.258070 0.286230 0.315800 0.346630 0.378590 0.411480 0.445110 0.479240 0.513640 0.548070 0.582260 0.615980 0.649010 0.681120 0.712140 0.741900 0.770270 0.797170 0.822510 0.846260 0.868400 0.888960 0.907960 0.925510 0.941750 0.956900 0.971300 0.985320 0.998970 1.013200 1.013600 1.013200 1.016400 1.002400 0.988050 0.973250 0.958200 0.942590 0.926110 0.908450 0.889410 0.868860 0.846720 0.822980 0.797650 0.770760 0.742390 0.712620 0.681600 0.649480 0.616450 0.582720 0.548510 0.514070 0.479640 0.445480 0.411820 0.378890 0.346890 0.316010 0.286390 0.258160 0.231410 0.206200 0.182560 0.160490 0.139980 0.120970 0.103390 0.087156 0.072151 0.058248 0.045320 0.033250 0.021954 0.011394 0.001595 -0.007340 -0.015231 -0.021821 -0.026801 -0.029859 -0.030867 -0.029859 -0.026801 -0.021821 -0.015231 -0.007340 0.001595 0.011394 0.021954 0.033250 0.045320 0.058248 0.072151 0.087156 0.103390 0.120970 0.139980 0.160490 0.182560 0.206200 0.231410 0.258160 0.286390 0.316010 0.346890 0.378890 0.411820 0.445480 0.479640 0.514070 0.548510 0.582720 0.616450 0.649480 0.681600 0.712620 0.742390 0.770760 0.797650 0.822980 0.846720 0.868860 0.889410 0.908450 0.926110 0.942590 0.958200 0.973250 0.988050 1.002400 1.016400 1.017200 1.016400 1.020400 1.006700 0.991680 0.976000 0.960110 0.943850 0.926930 0.909030 0.889890 0.869320 0.847200 0.823490 0.798180 0.771300 0.742940 0.713180 0.682160 0.650040 0.617000 0.583250 0.549030 0.514570 0.480120 0.445930 0.412240 0.379270 0.347220 0.316280 0.286610 0.258310 0.231480 0.206190 0.182450 0.160280 0.139630 0.120460 0.102680 0.086166 0.070796 0.056428 0.042934 0.030210 0.018200 0.006904 -0.003609 -0.013199 -0.021648 -0.028675 -0.033960 -0.037197 -0.038264 -0.037197 -0.033960 -0.028675 -0.021648 -0.013199 -0.003609 0.006904 0.018200 0.030210 0.042934 0.056428 0.070796 0.086166 0.102680 0.120460 0.139630 0.160280 0.182450 0.206190 0.231480 0.258310 0.286610 0.316280 0.347220 0.379270 0.412240 0.445930 0.480120 0.514570 0.549030 0.583250 0.617000 0.650040 0.682160 0.713180 0.742940 0.771300 0.798180 0.823490 0.847200 0.869320 0.889890 0.909030 0.926930 0.943850 0.960110 0.976000 0.991680 1.006700 1.020400 1.021600 1.020400 1.025400 1.012100 0.996390 0.979760 0.962880 0.945750 0.928150 0.909820 0.890450 0.869790 0.847670 0.823990 0.798710 0.771880 0.743540 0.713800 0.682790 0.650670 0.617630 0.583880 0.549650 0.515170 0.480700 0.446480 0.412750 0.379740 0.347650 0.316660 0.286920 0.258550 0.231650 0.206270 0.182440 0.160150 0.139350 0.119970 0.101900 0.085000 0.069123 0.054128 0.039899 0.026364 0.013503 0.001361 -0.009953 -0.020258 -0.029306 -0.036795 -0.042401 -0.045824 -0.046953 -0.045824 -0.042401 -0.036795 -0.029306 -0.020258 -0.009953 0.001361 0.013503 0.026364 0.039899 0.054128 0.069123 0.085000 0.101900 0.119970 0.139350 0.160150 0.182440 0.206270 0.231650 0.258550 0.286920 0.316660 0.347650 0.379740 0.412750 0.446480 0.480700 0.515170 0.549650 0.583880 0.617630 0.650670 0.682790 0.713800 0.743540 0.771880 0.798710 0.823990 0.847670 0.869790 0.890450 0.909820 0.928150 0.945750 0.962880 0.979760 0.996390 1.012100 1.025400 1.026800 1.025400 1.031600 1.018700 1.002400 0.984760 0.966770 0.948550 0.930030 0.911000 0.891180 0.870290 0.848100 0.824430 0.799220 0.772440 0.744160 0.714460 0.683480 0.651390 0.618360 0.584610 0.550370 0.515880 0.481390 0.447150 0.413390 0.380340 0.348210 0.317170 0.287380 0.258950 0.231980 0.206530 0.182590 0.160160 0.139160 0.119490 0.101000 0.083550 0.066977 0.051159 0.036011 0.021500 0.007651 -0.005449 -0.017647 -0.028728 -0.038418 -0.046399 -0.052345 -0.055964 -0.057158 -0.055964 -0.052345 -0.046399 -0.038418 -0.028728 -0.017647 -0.005449 0.007651 0.021500 0.036011 0.051159 0.066977 0.083550 0.101000 0.119490 0.139160 0.160160 0.182590 0.206530 0.231980 0.258950 0.287380 0.317170 0.348210 0.380340 0.413390 0.447150 0.481390 0.515880 0.550370 0.584610 0.618360 0.651390 0.683480 0.714460 0.744160 0.772440 0.799220 0.824430 0.848100 0.870290 0.891180 0.911000 0.930030 0.948550 0.966770 0.984760 1.002400 1.018700 1.031600 1.033100 1.031600 1.039100 1.026700 1.009800 0.991270 0.972060 0.952580 0.932880 0.912860 0.892310 0.870950 0.848520 0.824790 0.799620 0.772930 0.744740 0.715130 0.684210 0.652170 0.619170 0.585450 0.551220 0.516730 0.482240 0.447990 0.414210 0.381130 0.348970 0.317900 0.288070 0.259610 0.232590 0.207060 0.183010 0.160380 0.139080 0.118960 0.099869 0.081639 0.064141 0.047282 0.031020 0.015367 0.000393 -0.013773 -0.026940 -0.038862 -0.049240 -0.057747 -0.064056 -0.067887 -0.069152 -0.067887 -0.064056 -0.057747 -0.049240 -0.038862 -0.026940 -0.013773 0.000393 0.015367 0.031020 0.047282 0.064141 0.081639 0.099869 0.118960 0.139080 0.160380 0.183010 0.207060 0.232590 0.259610 0.288070 0.317900 0.348970 0.381130 0.414210 0.447990 0.482240 0.516730 0.551220 0.585450 0.619170 0.652170 0.684210 0.715130 0.744740 0.772930 0.799620 0.824790 0.848520 0.870950 0.892310 0.912860 0.932880 0.952580 0.972060 0.991270 1.009800 1.026700 1.039100 1.040700 1.039100 1.048200 1.036300 1.019100 0.999560 0.979090 0.958210 0.937110 0.915800 0.894180 0.872020 0.849080 0.825110 0.799880 0.773250 0.745190 0.715710 0.684920 0.652970 0.620050 0.586390 0.552200 0.517750 0.483280 0.449030 0.415260 0.382190 0.350030 0.318970 0.289140 0.260660 0.233610 0.207990 0.183760 0.160820 0.139040 0.118250 0.098282 0.079011 0.060336 0.042210 0.024636 0.007674 -0.008563 -0.023905 -0.038129 -0.050960 -0.062080 -0.071152 -0.077854 -0.081917 -0.083258 -0.081917 -0.077854 -0.071152 -0.062080 -0.050960 -0.038129 -0.023905 -0.008563 0.007674 0.024636 0.042210 0.060336 0.079011 0.098282 0.118250 0.139040 0.160820 0.183760 0.207990 0.233610 0.260660 0.289140 0.318970 0.350030 0.382190 0.415260 0.449030 0.483280 0.517750 0.552200 0.586390 0.620050 0.652970 0.684920 0.715710 0.745190 0.773250 0.799880 0.825110 0.849080 0.872020 0.894180 0.915800 0.937110 0.958210 0.979090 0.999560 1.019100 1.036300 1.048200 1.049900 1.048200 1.059400 1.047900 1.030300 1.010000 0.988220 0.965820 0.943130 0.920280 0.897240 0.873910 0.850090 0.825550 0.800050 0.773370 0.745400 0.716080 0.685480 0.653710 0.620950 0.587410 0.553330 0.518960 0.484560 0.450380 0.416660 0.383660 0.351560 0.320550 0.290770 0.262310 0.235200 0.209420 0.184860 0.161390 0.138850 0.117080 0.095939 0.075336 0.055223 0.035599 0.016517 -0.001921 -0.019560 -0.036196 -0.051572 -0.065388 -0.077310 -0.086996 -0.094127 -0.098445 -0.099872 -0.098445 -0.094127 -0.086996 -0.077310 -0.065388 -0.051572 -0.036196 -0.019560 -0.001921 0.016517 0.035599 0.055223 0.075336 0.095939 0.117080 0.138850 0.161390 0.184860 0.209420 0.235200 0.262310 0.290770 0.320550 0.351560 0.383660 0.416660 0.450380 0.484560 0.518960 0.553330 0.587410 0.620950 0.653710 0.685480 0.716080 0.745400 0.773370 0.800050 0.825550 0.850090 0.873910 0.897240 0.920280 0.943130 0.965820 0.988220 1.010000 1.030300 1.047900 1.059400 1.061100 1.059400 1.072900 1.061900 1.044000 1.022900 0.999860 0.975890 0.951450 0.926810 0.902060 0.877180 0.852060 0.826530 0.800380 0.773380 0.745340 0.716150 0.685770 0.654260 0.621750 0.588440 0.554570 0.520380 0.486150 0.452130 0.418570 0.385720 0.353770 0.322890 0.293190 0.264730 0.237460 0.211320 0.186170 0.161840 0.138190 0.115090 0.092446 0.070215 0.048399 0.027048 0.006258 -0.013827 -0.033016 -0.051069 -0.067701 -0.082589 -0.095385 -0.105740 -0.113350 -0.117950 -0.119470 -0.117950 -0.113350 -0.105740 -0.095385 -0.082589 -0.067701 -0.051069 -0.033016 -0.013827 0.006258 0.027048 0.048399 0.070215 0.092446 0.115090 0.138190 0.161840 0.186170 0.211320 0.237460 0.264730 0.293190 0.322890 0.353770 0.385720 0.418570 0.452130 0.486150 0.520380 0.554570 0.588440 0.621750 0.654260 0.685770 0.716150 0.745340 0.773380 0.800380 0.826530 0.852060 0.877180 0.902060 0.926810 0.951450 0.975890 0.999860 1.022900 1.044000 1.061900 1.072900 1.074700 1.072900 1.089400 1.078600 1.060600 1.038700 1.014500 0.988920 0.962630 0.936020 0.909290 0.882510 0.855680 0.828690 0.801410 0.773650 0.745220 0.715940 0.685700 0.654470 0.622320 0.589390 0.555890 0.522060 0.488160 0.454460 0.421210 0.388640 0.356940 0.326240 0.296580 0.267970 0.240310 0.213480 0.187350 0.161760 0.136610 0.111810 0.087323 0.063166 0.039385 0.016075 -0.006628 -0.028540 -0.049436 -0.069043 -0.087048 -0.103110 -0.116860 -0.127960 -0.136090 -0.141010 -0.142640 -0.141010 -0.136090 -0.127960 -0.116860 -0.103110 -0.087048 -0.069043 -0.049436 -0.028540 -0.006628 0.016075 0.039385 0.063166 0.087323 0.111810 0.136610 0.161760 0.187350 0.213480 0.240310 0.267970 0.296580 0.326240 0.356940 0.388640 0.421210 0.454460 0.488160 0.522060 0.555890 0.589390 0.622320 0.654470 0.685700 0.715940 0.745220 0.773650 0.801410 0.828690 0.855680 0.882510 0.909290 0.936020 0.962630 0.988920 1.014500 1.038700 1.060600 1.078600 1.089400 1.091300 1.089400 1.109400 1.098900 1.080700 1.058200 1.032700 1.005500 0.977330 0.948600 0.919670 0.890710 0.861790 0.832910 0.804010 0.774970 0.745640 0.715860 0.685490 0.654420 0.622640 0.590210 0.557270 0.524020 0.490700 0.457550 0.424800 0.392660 0.361260 0.330660 0.300860 0.271790 0.243340 0.215400 0.187830 0.160550 0.133490 0.106630 0.079981 0.053608 0.027600 0.002093 -0.022736 -0.046668 -0.069442 -0.090754 -0.110270 -0.127610 -0.142420 -0.154340 -0.163060 -0.168340 -0.170090 -0.168340 -0.163060 -0.154340 -0.142420 -0.127610 -0.110270 -0.090754 -0.069442 -0.046668 -0.022736 0.002093 0.027600 0.053608 0.079981 0.106630 0.133490 0.160550 0.187830 0.215400 0.243340 0.271790 0.300860 0.330660 0.361260 0.392660 0.424800 0.457550 0.490700 0.524020 0.557270 0.590210 0.622640 0.654420 0.685490 0.715860 0.745640 0.774970 0.804010 0.832910 0.861790 0.890710 0.919670 0.948600 0.977330 1.005500 1.032700 1.058200 1.080700 1.098900 1.109400 1.111500 1.109400 1.133900 1.123300 1.105100 1.081900 1.055300 1.026500 0.996340 0.965390 0.934100 0.902730 0.871430 0.840300 0.809340 0.778520 0.747770 0.716960 0.685980 0.654730 0.623130 0.591170 0.558890 0.526410 0.493890 0.461490 0.429390 0.397700 0.366480 0.335750 0.305440 0.275480 0.245780 0.216230 0.186790 0.157400 0.128060 0.098803 0.069687 0.040812 0.012315 -0.015630 -0.042810 -0.068967 -0.093807 -0.116990 -0.138160 -0.156930 -0.172910 -0.185750 -0.195130 -0.200810 -0.202700 -0.200810 -0.195130 -0.185750 -0.172910 -0.156930 -0.138160 -0.116990 -0.093807 -0.068967 -0.042810 -0.015630 0.012315 0.040812 0.069687 0.098803 0.128060 0.157400 0.186790 0.216230 0.245780 0.275480 0.305440 0.335750 0.366480 0.397700 0.429390 0.461490 0.493890 0.526410 0.558890 0.591170 0.623130 0.654730 0.685980 0.716960 0.747770 0.778520 0.809340 0.840300 0.871430 0.902730 0.934100 0.965390 0.996340 1.026500 1.055300 1.081900 1.105100 1.123300 1.133900 1.136100 1.133900 1.163700 1.153000 1.134600 1.110900 1.083200 1.052800 1.020600 0.987440 0.953700 0.919770 0.885910 0.852270 0.818940 0.785960 0.753330 0.720990 0.688900 0.656960 0.625110 0.593280 0.561450 0.529630 0.497830 0.466110 0.434500 0.403010 0.371650 0.340350 0.309080 0.277760 0.246330 0.214780 0.183070 0.151230 0.119300 0.087343 0.055475 0.023832 -0.007410 -0.038038 -0.067800 -0.096401 -0.123510 -0.148760 -0.171760 -0.192100 -0.209390 -0.223250 -0.233370 -0.239500 -0.241550 -0.239500 -0.233370 -0.223250 -0.209390 -0.192100 -0.171760 -0.148760 -0.123510 -0.096401 -0.067800 -0.038038 -0.007410 0.023832 0.055475 0.087343 0.119300 0.151230 0.183070 0.214780 0.246330 0.277760 0.309080 0.340350 0.371650 0.403010 0.434500 0.466110 0.497830 0.529630 0.561450 0.593280 0.625110 0.656960 0.688900 0.720990 0.753330 0.785960 0.818940 0.852270 0.885910 0.919770 0.953700 0.987440 1.020600 1.052800 1.083200 1.110900 1.134600 1.153000 1.163700 1.166200 1.163700 1.200200 1.189300 1.170600 1.146200 1.117500 1.085600 1.051600 1.016100 0.979900 0.943380 0.906880 0.870630 0.834780 0.799430 0.764630 0.730390 0.696710 0.663520 0.630780 0.598400 0.566310 0.534420 0.502650 0.470900 0.439100 0.407160 0.375020 0.342600 0.309860 0.276740 0.243230 0.209340 0.175090 0.140540 0.105770 0.070881 0.036026 0.001381 -0.032840 -0.066383 -0.098955 -0.130220 -0.159810 -0.187330 -0.212340 -0.234430 -0.253170 -0.268180 -0.279130 -0.285790 -0.288010 -0.285790 -0.279130 -0.268180 -0.253170 -0.234430 -0.212340 -0.187330 -0.159810 -0.130220 -0.098955 -0.066383 -0.032840 0.001381 0.036026 0.070881 0.105770 0.140540 0.175090 0.209340 0.243230 0.276740 0.309860 0.342600 0.375020 0.407160 0.439100 0.470900 0.502650 0.534420 0.566310 0.598400 0.630780 0.663520 0.696710 0.730390 0.764630 0.799430 0.834780 0.870630 0.906880 0.943380 0.979900 1.016100 1.051600 1.085600 1.117500 1.146200 1.170600 1.189300 1.200200 1.203100 1.200200 1.245000 1.233600 1.214600 1.189700 1.160000 1.126700 1.090800 1.053200 1.014600 0.975570 0.936480 0.897620 0.859210 0.821380 0.784210 0.747750 0.711990 0.676910 0.642430 0.608480 0.574950 0.541700 0.508590 0.475500 0.442270 0.408780 0.374920 0.340610 0.305770 0.270380 0.234410 0.197890 0.160850 0.123380 0.085573 0.047568 0.009539 -0.028302 -0.065702 -0.102370 -0.137960 -0.172100 -0.204390 -0.234370 -0.261600 -0.285610 -0.305960 -0.322250 -0.334150 -0.341380 -0.343800 -0.341380 -0.334150 -0.322250 -0.305960 -0.285610 -0.261600 -0.234370 -0.204390 -0.172100 -0.137960 -0.102370 -0.065702 -0.028302 0.009539 0.047568 0.085573 0.123380 0.160850 0.197890 0.234410 0.270380 0.305770 0.340610 0.374920 0.408780 0.442270 0.475500 0.508590 0.541700 0.574950 0.608480 0.642430 0.676910 0.711990 0.747750 0.784210 0.821380 0.859210 0.897620 0.936480 0.975570 1.014600 1.053200 1.090800 1.126700 1.160000 1.189700 1.214600 1.233600 1.245000 1.248300 1.245000 1.300200 1.288300 1.268900 1.243400 1.212700 1.178100 1.140500 1.101000 1.060200 1.018700 0.977120 0.935660 0.894600 0.854090 0.814220 0.775040 0.736550 0.698700 0.661430 0.624660 0.588270 0.552140 0.516130 0.480120 0.443960 0.407540 0.370730 0.333460 0.295640 0.257220 0.218190 0.178550 0.138330 0.097619 0.056509 0.015152 -0.026262 -0.067497 -0.108270 -0.148250 -0.187060 -0.224290 -0.259460 -0.292120 -0.321750 -0.347860 -0.369990 -0.387700 -0.400640 -0.408520 -0.411170 -0.408520 -0.400640 -0.387700 -0.369990 -0.347860 -0.321750 -0.292120 -0.259460 -0.224290 -0.187060 -0.148250 -0.108270 -0.067497 -0.026262 0.015152 0.056509 0.097619 0.138330 0.178550 0.218190 0.257220 0.295640 0.333460 0.370730 0.407540 0.443960 0.480120 0.516130 0.552140 0.588270 0.624660 0.661430 0.698700 0.736550 0.775040 0.814220 0.854090 0.894600 0.935660 0.977120 1.018700 1.060200 1.101000 1.140500 1.178100 1.212700 1.243400 1.268900 1.288300 1.300200 1.304000 1.300200 1.367100 1.354800 1.335200 1.309300 1.278000 1.242500 1.203700 1.162600 1.119900 1.076400 1.032400 0.988280 0.944360 0.900760 0.857580 0.814850 0.772580 0.730750 0.689300 0.648180 0.607300 0.566590 0.525930 0.485250 0.444440 0.403420 0.362090 0.320400 0.278280 0.235680 0.192590 0.149000 0.104930 0.060456 0.015660 -0.029316 -0.074284 -0.119000 -0.163190 -0.206480 -0.248480 -0.288750 -0.326790 -0.362070 -0.394080 -0.422280 -0.446170 -0.465290 -0.479260 -0.487770 -0.490630 -0.487770 -0.479260 -0.465290 -0.446170 -0.422280 -0.394080 -0.362070 -0.326790 -0.288750 -0.248480 -0.206480 -0.163190 -0.119000 -0.074284 -0.029316 0.015660 0.060456 0.104930 0.149000 0.192590 0.235680 0.278280 0.320400 0.362090 0.403420 0.444440 0.485250 0.525930 0.566590 0.607300 0.648180 0.689300 0.730750 0.772580 0.814850 0.857580 0.900760 0.944360 0.988280 1.032400 1.076400 1.119900 1.162600 1.203700 1.242500 1.278000 1.309300 1.335200 1.354800 1.367100 1.371100 1.367100 1.448700 1.436400 1.416900 1.390900 1.359500 1.323400 1.283800 1.241500 1.197300 1.151700 1.105200 1.058200 1.010800 0.963380 0.915900 0.868480 0.821130 0.773880 0.726730 0.679640 0.632610 0.585590 0.538550 0.491440 0.444230 0.396870 0.349310 0.301540 0.253530 0.205260 0.156730 0.107950 0.058944 0.009779 -0.039459 -0.088643 -0.137600 -0.186100 -0.233860 -0.280540 -0.325740 -0.369000 -0.409820 -0.447650 -0.481940 -0.512140 -0.537710 -0.558170 -0.573110 -0.582210 -0.585270 -0.582210 -0.573110 -0.558170 -0.537710 -0.512140 -0.481940 -0.447650 -0.409820 -0.369000 -0.325740 -0.280540 -0.233860 -0.186100 -0.137600 -0.088643 -0.039459 0.009779 0.058944 0.107950 0.156730 0.205260 0.253530 0.301540 0.349310 0.396870 0.444230 0.491440 0.538550 0.585590 0.632610 0.679640 0.726730 0.773880 0.821130 0.868480 0.915900 0.963380 1.010800 1.058200 1.105200 1.151700 1.197300 1.241500 1.283800 1.323400 1.359500 1.390900 1.416900 1.436400 1.448700 1.452900 1.448700 1.549500 1.537500 1.518300 1.492600 1.461300 1.425100 1.384900 1.341600 1.295700 1.247800 1.198300 1.147700 1.096000 1.043700 0.990660 0.937170 0.883270 0.829040 0.774540 0.719820 0.664900 0.609820 0.554610 0.499270 0.443830 0.388300 0.332710 0.277060 0.221390 0.165720 0.110080 0.054539 -0.000861 -0.056039 -0.110890 -0.165290 -0.219070 -0.272000 -0.323820 -0.374220 -0.422800 -0.469130 -0.512720 -0.553020 -0.589490 -0.621550 -0.648680 -0.670370 -0.686200 -0.695840 -0.699080 -0.695840 -0.686200 -0.670370 -0.648680 -0.621550 -0.589490 -0.553020 -0.512720 -0.469130 -0.422800 -0.374220 -0.323820 -0.272000 -0.219070 -0.165290 -0.110890 -0.056039 -0.000861 0.054539 0.110080 0.165720 0.221390 0.277060 0.332710 0.388300 0.443830 0.499270 0.554610 0.609820 0.664900 0.719820 0.774540 0.829040 0.883270 0.937170 0.990660 1.043700 1.096000 1.147700 1.198300 1.247800 1.295700 1.341600 1.384900 1.425100 1.461300 1.492600 1.518300 1.537500 1.549500 1.553600 1.549500 1.675000 1.663400 1.644700 1.619600 1.588500 1.552200 1.511400 1.466700 1.418700 1.367900 1.314600 1.259300 1.202200 1.143600 1.083700 1.022600 0.960510 0.897610 0.834010 0.769830 0.705180 0.640140 0.574820 0.509310 0.443670 0.378000 0.312380 0.246880 0.181590 0.116590 0.051977 -0.012157 -0.075705 -0.138550 -0.200550 -0.261560 -0.321390 -0.379820 -0.436590 -0.491390 -0.543860 -0.593610 -0.640160 -0.683020 -0.721650 -0.755520 -0.784100 -0.806920 -0.823540 -0.833660 -0.837050 -0.833660 -0.823540 -0.806920 -0.784100 -0.755520 -0.721650 -0.683020 -0.640160 -0.593610 -0.543860 -0.491390 -0.436590 -0.379820 -0.321390 -0.261560 -0.200550 -0.138550 -0.075705 -0.012157 0.051977 0.116590 0.181590 0.246880 0.312380 0.378000 0.443670 0.509310 0.574820 0.640140 0.705180 0.769830 0.834010 0.897610 0.960510 1.022600 1.083700 1.143600 1.202200 1.259300 1.314600 1.367900 1.418700 1.466700 1.511400 1.552200 1.588500 1.619600 1.644700 1.663400 1.675000 1.678900 1.675000 1.831900 1.820700 1.802600 1.777700 1.746700 1.709900 1.668000 1.621300 1.570300 1.515600 1.457400 1.396200 1.332200 1.265900 1.197400 1.127000 1.054900 0.981490 0.906850 0.831200 0.754740 0.677630 0.600060 0.522170 0.444140 0.366110 0.288240 0.210670 0.133570 0.057073 -0.018656 -0.093459 -0.167170 -0.239620 -0.310610 -0.379960 -0.447440 -0.512800 -0.575790 -0.636090 -0.693360 -0.747240 -0.797290 -0.843070 -0.884090 -0.919880 -0.949960 -0.973890 -0.991280 -1.001800 -1.005400 -1.001800 -0.991280 -0.973890 -0.949960 -0.919880 -0.884090 -0.843070 -0.797290 -0.747240 -0.693360 -0.636090 -0.575790 -0.512800 -0.447440 -0.379960 -0.310610 -0.239620 -0.167170 -0.093459 -0.018656 0.057073 0.133570 0.210670 0.288240 0.366110 0.444140 0.522170 0.600060 0.677630 0.754740 0.831200 0.906850 0.981490 1.054900 1.127000 1.197400 1.265900 1.332200 1.396200 1.457400 1.515600 1.570300 1.621300 1.668000 1.709900 1.746700 1.777700 1.802600 1.820700 1.831900 1.835700 1.831900 2.028200 2.017200 1.999100 1.974100 1.942400 1.904300 1.860200 1.810400 1.755300 1.695300 1.630800 1.562100 1.489700 1.413800 1.334900 1.253300 1.169300 1.083100 0.995230 0.905820 0.815190 0.723600 0.631300 0.538560 0.445600 0.352680 0.260020 0.167860 0.076427 -0.014043 -0.103320 -0.191170 -0.277360 -0.361650 -0.443780 -0.523510 -0.600560 -0.674660 -0.745500 -0.812780 -0.876170 -0.935290 -0.989780 -1.039200 -1.083200 -1.121400 -1.153200 -1.178500 -1.196700 -1.207800 -1.211500 -1.207800 -1.196700 -1.178500 -1.153200 -1.121400 -1.083200 -1.039200 -0.989780 -0.935290 -0.876170 -0.812780 -0.745500 -0.674660 -0.600560 -0.523510 -0.443780 -0.361650 -0.277360 -0.191170 -0.103320 -0.014043 0.076427 0.167860 0.260020 0.352680 0.445600 0.538560 0.631300 0.723600 0.815190 0.905820 0.995230 1.083100 1.169300 1.253300 1.334900 1.413800 1.489700 1.562100 1.630800 1.695300 1.755300 1.810400 1.860200 1.904300 1.942400 1.974100 1.999100 2.017200 2.028200 2.031900 2.028200 2.272900 2.261600 2.242800 2.216700 2.183100 2.142400 2.094800 2.040400 1.979500 1.912600 1.840000 1.762100 1.679200 1.591800 1.500300 1.405200 1.306800 1.205600 1.101800 0.996010 0.888480 0.779600 0.669740 0.559240 0.448440 0.337680 0.227300 0.117620 0.008960 -0.098348 -0.203990 -0.307640 -0.408980 -0.507700 -0.603470 -0.695960 -0.784860 -0.869840 -0.950560 -1.026700 -1.097900 -1.163800 -1.224100 -1.278400 -1.326300 -1.367600 -1.401900 -1.428900 -1.448400 -1.460200 -1.464100 -1.460200 -1.448400 -1.428900 -1.401900 -1.367600 -1.326300 -1.278400 -1.224100 -1.163800 -1.097900 -1.026700 -0.950560 -0.869840 -0.784860 -0.695960 -0.603470 -0.507700 -0.408980 -0.307640 -0.203990 -0.098348 0.008960 0.117620 0.227300 0.337680 0.448440 0.559240 0.669740 0.779600 0.888480 0.996010 1.101800 1.205600 1.306800 1.405200 1.500300 1.591800 1.679200 1.762100 1.840000 1.912600 1.979500 2.040400 2.094800 2.142400 2.183100 2.216700 2.242800 2.261600 2.272900 2.276700 2.272900 2.575600 2.563400 2.543000 2.514400 2.477600 2.432600 2.379600 2.318700 2.250200 2.174300 2.091400 2.002000 1.906400 1.805000 1.698500 1.587200 1.471700 1.352400 1.229800 1.104500 0.976900 0.847490 0.716730 0.585100 0.453060 0.321040 0.189510 0.058901 -0.070360 -0.197840 -0.323120 -0.445770 -0.565390 -0.681560 -0.793880 -0.901960 -1.005400 -1.103800 -1.196800 -1.284100 -1.365200 -1.439800 -1.507700 -1.568400 -1.621800 -1.667400 -1.705100 -1.734700 -1.756000 -1.768800 -1.773100 -1.768800 -1.756000 -1.734700 -1.705100 -1.667400 -1.621800 -1.568400 -1.507700 -1.439800 -1.365200 -1.284100 -1.196800 -1.103800 -1.005400 -0.901960 -0.793880 -0.681560 -0.565390 -0.445770 -0.323120 -0.197840 -0.070360 0.058901 0.189510 0.321040 0.453060 0.585100 0.716730 0.847490 0.976900 1.104500 1.229800 1.352400 1.471700 1.587200 1.698500 1.805000 1.906400 2.002000 2.091400 2.174300 2.250200 2.318700 2.379600 2.432600 2.477600 2.514400 2.543000 2.563400 2.575600 2.579700 2.575600 2.946900 2.933100 2.910000 2.877500 2.835800 2.784600 2.724200 2.654500 2.575900 2.488600 2.393000 2.289300 2.178100 2.059900 1.935300 1.804700 1.668700 1.528000 1.383100 1.234600 1.083200 0.929390 0.773850 0.617150 0.459880 0.302610 0.145930 -0.009603 -0.163420 -0.314980 -0.463730 -0.609140 -0.750700 -0.887880 -1.020200 -1.147200 -1.268300 -1.383200 -1.491400 -1.592500 -1.686100 -1.771900 -1.849600 -1.918800 -1